Ca    ONCVPSP-3.3.1  r_core=   1.45885   1.45885   1.85192
     20.0000     10.0000      240606    zatom,zion,pspd
     8 -116133   2     4   400     0    pspcod,pspxc,lmax,lloc,mmax,r2well
  3.99000000  0.00000000  0.00000000    rchrg fchrg qchrg
     2     2     2     0     0    nproj
     1     1           extension_switch
   0                         1.0054846890935D+01  9.7377719728635D-01
     1  0.0000000000000D+00 -3.3101932306323D-10  1.3722664671256D-09
     2  1.0000000000000D-02  7.1181037116815D-02 -3.9555395633135D-02
     3  2.0000000000000D-02  1.4220294860569D-01 -7.8860447601661D-02
     4  3.0000000000000D-02  2.1290728331562D-01 -1.1766685535633D-01
     5  4.0000000000000D-02  2.8313693275096D-01 -1.5573037938470D-01
     6  5.0000000000000D-02  3.5273678673862D-01 -1.9281280910037D-01
     7  6.0000000000000D-02  4.2155437054161D-01 -2.2868385656764D-01
     8  7.0000000000000D-02  4.8944045762926D-01 -2.6312295297585D-01
     9  8.0000000000000D-02  5.5624965264518D-01 -2.9592092615006D-01
    10  9.0000000000000D-02  6.2184093951905D-01 -3.2688153906304D-01
    11  1.0000000000000D-01  6.8607819014079D-01 -3.5582287127484D-01
    12  1.1000000000000D-01  7.4883062955004D-01 -3.8257852744175D-01
    13  1.2000000000000D-01  8.0997325418059D-01 -4.0699865947551D-01
    14  1.3000000000000D-01  8.6938720033247D-01 -4.2895079156103D-01
    15  1.4000000000000D-01  9.2696006071208D-01 -4.4832044001928D-01
    16  1.5000000000000D-01  9.8258614757583D-01 -4.6501152289251D-01
    17  1.6000000000000D-01  1.0361667017229D+00 -4.7894655708848D-01
    18  1.7000000000000D-01  1.0876100472999D+00 -4.9006664390876D-01
    19  1.8000000000000D-01  1.1368316930912D+00 -4.9833124675876D-01
    20  1.9000000000000D-01  1.1837543816680D+00 -5.0371776775182D-01
    21  2.0000000000000D-01  1.2283080884372D+00 -5.0622093273394D-01
    22  2.1000000000000D-01  1.2704299732726D+00 -5.0585199693001D-01
    23  2.2000000000000D-01  1.3100642880006D+00 -5.0263778590465D-01
    24  2.3000000000000D-01  1.3471622435516D+00 -4.9661958880878D-01
    25  2.4000000000000D-01  1.3816818410691D+00 -4.8785192290902D-01
    26  2.5000000000000D-01  1.4135876716751D+00 -4.7640119014321D-01
    27  2.6000000000000D-01  1.4428506899266D+00 -4.6234424788519D-01
    28  2.7000000000000D-01  1.4694479662550D+00 -4.4576691721233D-01
    29  2.8000000000000D-01  1.4933624238474D+00 -4.2676245273402D-01
    30  2.9000000000000D-01  1.5145825655194D+00 -4.0542999844517D-01
    31  3.0000000000000D-01  1.5331021961192D+00 -3.8187305410827D-01
    32  3.1000000000000D-01  1.5489201459175D+00 -3.5619797633917D-01
    33  3.2000000000000D-01  1.5620400002536D+00 -3.2851253787763D-01
    34  3.3000000000000D-01  1.5724698404480D+00 -2.9892456747302D-01
    35  3.4000000000000D-01  1.5802220006433D+00 -2.6754069142149D-01
    36  3.5000000000000D-01  1.5853128448168D+00 -2.3446519607287D-01
    37  3.6000000000000D-01  1.5877625677136D+00 -1.9979902860556D-01
    38  3.7000000000000D-01  1.5875950228950D+00 -1.6363895107575D-01
    39  3.8000000000000D-01  1.5848375804860D+00 -1.2607686021417D-01
    40  3.9000000000000D-01  1.5795210165515D+00 -8.7199282706143D-02
    41  4.0000000000000D-01  1.5716794353343D+00 -4.7087052787730D-02
    42  4.1000000000000D-01  1.5613502248744D+00 -5.8151759648128D-03
    43  4.2000000000000D-01  1.5485740457940D+00  3.6547120443259D-02
    44  4.3000000000000D-01  1.5333948522958D+00  7.9936152371860D-02
    45  4.4000000000000D-01  1.5158599436979D+00  1.2429336525243D-01
    46  4.5000000000000D-01  1.4960200441148D+00  1.6956475005280D-01
    47  4.6000000000000D-01  1.4739294072230D+00  2.1570010069897D-01
    48  4.7000000000000D-01  1.4496459424107D+00  2.6265212726633D-01
    49  4.8000000000000D-01  1.4232313580297D+00  3.1037544193639D-01
    50  4.9000000000000D-01  1.3947513169493D+00  3.5882543708628D-01
    51  5.0000000000000D-01  1.3642755991628D+00  4.0795707697379D-01
    52  5.1000000000000D-01  1.3318782658299D+00  4.5772362626534D-01
    53  5.2000000000000D-01  1.2976378188577D+00  5.0807534009793D-01
    54  5.3000000000000D-01  1.2616373499350D+00  5.5895814144409D-01
    55  5.4000000000000D-01  1.2239646728439D+00  6.1031231223689D-01
    56  5.5000000000000D-01  1.1847124328847D+00  6.6207122499940D-01
    57  5.6000000000000D-01  1.1439781873614D+00  7.1416014159660D-01
    58  5.7000000000000D-01  1.1018644512932D+00  7.6649510518442D-01
    59  5.8000000000000D-01  1.0584787028339D+00  8.1898195047446D-01
    60  5.9000000000000D-01  1.0139333432969D+00  8.7151545607021D-01
    61  6.0000000000000D-01  9.6834560719810D-01  9.2397866087778D-01
    62  6.1000000000000D-01  9.2183741832386D-01  9.7624236446695D-01
    63  6.2000000000000D-01  8.7453518851738D-01  1.0281648287965D+00
    64  6.3000000000000D-01  8.2656955662932D-01  1.0795916959242D+00
    65  6.4000000000000D-01  7.7807506589609D-01  1.1303561332768D+00
    66  6.5000000000000D-01  7.2918977888097D-01  1.1802792147524D+00
    67  6.6000000000000D-01  6.8005483002536D-01  1.2291705424400D+00
    68  6.7000000000000D-01  6.3081391679358D-01  1.2768291101293D+00
    69  6.8000000000000D-01  5.8161273135238D-01  1.3230444060512D+00
    70  6.9000000000000D-01  5.3259833568021D-01  1.3675977485419D+00
    71  7.0000000000000D-01  4.8391848394496D-01  1.4102638445818D+00
    72  7.1000000000000D-01  4.3572089690140D-01  1.4508125575095D+00
    73  7.2000000000000D-01  3.8815249393953D-01  1.4890108666508D+00
    74  7.3000000000000D-01  3.4135858923206D-01  1.5246249982640D+00
    75  7.4000000000000D-01  2.9548205918396D-01  1.5574227040716D+00
    76  7.5000000000000D-01  2.5066248906085D-01  1.5871756608052D+00
    77  7.6000000000000D-01  2.0703530725496D-01  1.6136619616849D+00
    78  7.7000000000000D-01  1.6473091613024D-01  1.6366686686005D+00
    79  7.8000000000000D-01  1.2387382875921D-01  1.6559943920313D+00
    80  7.9000000000000D-01  8.4581821117452D-02  1.6714518644434D+00
    81  8.0000000000000D-01  4.6965109432435D-02  1.6828704720666D+00
    82  8.1000000000000D-01  1.1125562385093D-02  1.6900987096071D+00
    83  8.2000000000000D-01 -2.2844042265919D-02  1.6930065225958D+00
    84  8.3000000000000D-01 -5.4860707327072D-02  1.6914875027244D+00
    85  8.4000000000000D-01 -8.4851843159938D-02  1.6854609026691D+00
    86  8.5000000000000D-01 -1.1275582361576D-01  1.6748734385465D+00
    87  8.6000000000000D-01 -1.3852246315185D-01  1.6597008502638D+00
    88  8.7000000000000D-01 -1.6211340812292D-01  1.6399491925991D+00
    89  8.8000000000000D-01 -1.8350243610370D-01  1.6156558328427D+00
    90  8.9000000000000D-01 -2.0267565805980D-01  1.5868901342145D+00
    91  9.0000000000000D-01 -2.1963161923056D-01  1.5537538080021D+00
    92  9.1000000000000D-01 -2.3438129570706D-01  1.5163809213893D+00
    93  9.2000000000000D-01 -2.4694798486723D-01  1.4749375522150D+00
    94  9.3000000000000D-01 -2.5736708905169D-01  1.4296210863628D+00
    95  9.4000000000000D-01 -2.6568579311399D-01  1.3806591580665D+00
    96  9.5000000000000D-01 -2.7196263773953D-01  1.3283082380645D+00
    97  9.6000000000000D-01 -2.7626699168021D-01  1.2728518791839D+00
    98  9.7000000000000D-01 -2.7867842729330D-01  1.2145986335534D+00
    99  9.8000000000000D-01 -2.7928600494268D-01  1.1538796600178D+00
   100  9.9000000000000D-01 -2.7818747297545D-01  1.0910460446627D+00
   101  1.0000000000000D+00 -2.7548839104119D-01  1.0264658613357D+00
   102  1.0100000000000D+00 -2.7130118548909D-01  9.6052100271677D-01
   103  1.0200000000000D+00 -2.6574414645147D-01  8.9360381581622D-01
   104  1.0300000000000D+00 -2.5894037697299D-01  8.2611357865858D-01
   105  1.0400000000000D+00 -2.5101670517958D-01  7.5845285736561D-01
   106  1.0500000000000D+00 -2.4210257094015D-01  6.9102378464623D-01
   107  1.0600000000000D+00 -2.3232889886264D-01  6.2422430225414D-01
   108  1.0700000000000D+00 -2.2182696961830D-01  5.5844441062837D-01
   109  1.0800000000000D+00 -2.1072730164462D-01  4.9406246923893D-01
   110  1.0900000000000D+00 -1.9915855511228D-01  4.3144159063718D-01
   111  1.1000000000000D+00 -1.8724646984023D-01  3.7092617053540D-01
   112  1.1100000000000D+00 -1.7511284832293D-01  3.1283859439515D-01
   113  1.1200000000000D+00 -1.6287459449965D-01  2.5747615907498D-01
   114  1.1300000000000D+00 -1.5064281808095D-01  2.0510824512115D-01
   115  1.1400000000000D+00 -1.3852201351102D-01  1.5597377258712D-01
   116  1.1500000000000D+00 -1.2660932155903D-01  1.1027896927785D-01
   117  1.1600000000000D+00 -1.1499388042983D-01  6.8195476235102D-02
   118  1.1700000000000D+00 -1.0375627196548D-01  2.9858810392980D-02
   119  1.1800000000000D+00 -9.2968067590557D-02 -4.6327990741887D-03
   120  1.1900000000000D+00 -8.2691476879474D-02 -3.5219190789323D-02
   121  1.2000000000000D+00 -7.2979100371545D-02 -6.1878662343767D-02
   122  1.2100000000000D+00 -6.3873786795689D-02 -8.4627972812186D-02
   123  1.2200000000000D+00 -5.5408593759748D-02 -1.0352196094984D-01
   124  1.2300000000000D+00 -4.7606848905826D-02 -1.1865279108886D-01
   125  1.2400000000000D+00 -4.0482307327212D-02 -1.3014884326329D-01
   126  1.2500000000000D+00 -3.4039400403745D-02 -1.3817326647892D-01
   127  1.2600000000000D+00 -2.8273568729048D-02 -1.4292222334194D-01
   128  1.2700000000000D+00 -2.3171669701941D-02 -1.4462286392852D-01
   129  1.2800000000000D+00 -1.8712460435524D-02 -1.4353101590453D-01
   130  1.2900000000000D+00 -1.4867112919649D-02 -1.3992879180183D-01
   131  1.3000000000000D+00 -1.1599885448329D-02 -1.3412149446204D-01
   132  1.3100000000000D+00 -8.8684484885802D-03 -1.2643626770549D-01
   133  1.3200000000000D+00 -6.6250618172227D-03 -1.1721659305988D-01
   134  1.3300000000000D+00 -4.8184340387328D-03 -1.0681343719073D-01
   135  1.3400000000000D+00 -3.3957912321123D-03 -9.5575857704104D-02
   136  1.3500000000000D+00 -2.3045480118524D-03 -8.3843692924490D-02
   137  1.3600000000000D+00 -1.4930657464636D-03 -7.1944906761326D-02
   138  1.3700000000000D+00 -9.1170730057374D-04 -6.0191385391027D-02
   139  1.3800000000000D+00 -5.1377605381607D-04 -4.8875274159385D-02
   140  1.3900000000000D+00 -2.5640600696373D-04 -3.8265502195288D-02
   141  1.4000000000000D+00 -1.0137226317566D-04 -2.8604631529706D-02
   142  1.4100000000000D+00 -1.5786663157481D-05 -2.0108410171884D-02
   143  1.4200000000000D+00  2.7157723994274D-05 -1.2956105493698D-02
   144  1.4300000000000D+00  4.6707060193681D-05 -7.2583945263442D-03
   145  1.4400000000000D+00  5.8758843966830D-05 -3.2159394861306D-03
   146  1.4500000000000D+00  7.3808907850170D-05 -9.8590745747540D-04
   147  1.4600000000000D+00  6.8208025706440D-05 -1.2620046749746D-04
   148  1.4700000000000D+00  2.5903851230434D-05  3.4012029839596D-05
   149  1.4800000000000D+00 -5.8741017797670D-06 -1.3861526915802D-05
   150  1.4900000000000D+00 -4.3254877217631D-06 -1.3347447059164D-05
   151  1.5000000000000D+00  1.6054154639003D-06  2.6308005897895D-06
   152  1.5100000000000D+00  5.3885760918768D-07  1.0343293995575D-06
   153  1.5200000000000D+00 -2.0195223254286D-07  5.0580163054061D-07
   154  1.5300000000000D+00 -4.9118929412807D-09  1.2302134160430D-08
   155  1.5400000000000D+00  0.0000000000000D+00  0.0000000000000D+00
   156  1.5500000000000D+00  0.0000000000000D+00  0.0000000000000D+00
   157  1.5600000000000D+00  0.0000000000000D+00  0.0000000000000D+00
   158  1.5700000000000D+00  0.0000000000000D+00  0.0000000000000D+00
   159  1.5800000000000D+00  0.0000000000000D+00  0.0000000000000D+00
   160  1.5900000000000D+00  0.0000000000000D+00  0.0000000000000D+00
   161  1.6000000000000D+00  0.0000000000000D+00  0.0000000000000D+00
   162  1.6100000000000D+00  0.0000000000000D+00  0.0000000000000D+00
   163  1.6200000000000D+00  0.0000000000000D+00  0.0000000000000D+00
   164  1.6300000000000D+00  0.0000000000000D+00  0.0000000000000D+00
   165  1.6400000000000D+00  0.0000000000000D+00  0.0000000000000D+00
   166  1.6500000000000D+00  0.0000000000000D+00  0.0000000000000D+00
   167  1.6600000000000D+00  0.0000000000000D+00  0.0000000000000D+00
   168  1.6700000000000D+00  0.0000000000000D+00  0.0000000000000D+00
   169  1.6800000000000D+00  0.0000000000000D+00  0.0000000000000D+00
   170  1.6900000000000D+00  0.0000000000000D+00  0.0000000000000D+00
   171  1.7000000000000D+00  0.0000000000000D+00  0.0000000000000D+00
   172  1.7100000000000D+00  0.0000000000000D+00  0.0000000000000D+00
   173  1.7200000000000D+00  0.0000000000000D+00  0.0000000000000D+00
   174  1.7300000000000D+00  0.0000000000000D+00  0.0000000000000D+00
   175  1.7400000000000D+00  0.0000000000000D+00  0.0000000000000D+00
   176  1.7500000000000D+00  0.0000000000000D+00  0.0000000000000D+00
   177  1.7600000000000D+00  0.0000000000000D+00  0.0000000000000D+00
   178  1.7700000000000D+00  0.0000000000000D+00  0.0000000000000D+00
   179  1.7800000000000D+00  0.0000000000000D+00  0.0000000000000D+00
   180  1.7900000000000D+00  0.0000000000000D+00  0.0000000000000D+00
   181  1.8000000000000D+00  0.0000000000000D+00  0.0000000000000D+00
   182  1.8100000000000D+00  0.0000000000000D+00  0.0000000000000D+00
   183  1.8200000000000D+00  0.0000000000000D+00  0.0000000000000D+00
   184  1.8300000000000D+00  0.0000000000000D+00  0.0000000000000D+00
   185  1.8400000000000D+00  0.0000000000000D+00  0.0000000000000D+00
   186  1.8500000000000D+00  0.0000000000000D+00  0.0000000000000D+00
   187  1.8600000000000D+00  0.0000000000000D+00  0.0000000000000D+00
   188  1.8700000000000D+00  0.0000000000000D+00  0.0000000000000D+00
   189  1.8800000000000D+00  0.0000000000000D+00  0.0000000000000D+00
   190  1.8900000000000D+00  0.0000000000000D+00  0.0000000000000D+00
   191  1.9000000000000D+00  0.0000000000000D+00  0.0000000000000D+00
   192  1.9100000000000D+00  0.0000000000000D+00  0.0000000000000D+00
   193  1.9200000000000D+00  0.0000000000000D+00  0.0000000000000D+00
   194  1.9300000000000D+00  0.0000000000000D+00  0.0000000000000D+00
   195  1.9400000000000D+00  0.0000000000000D+00  0.0000000000000D+00
   196  1.9500000000000D+00  0.0000000000000D+00  0.0000000000000D+00
   197  1.9600000000000D+00  0.0000000000000D+00  0.0000000000000D+00
   198  1.9700000000000D+00  0.0000000000000D+00  0.0000000000000D+00
   199  1.9800000000000D+00  0.0000000000000D+00  0.0000000000000D+00
   200  1.9900000000000D+00  0.0000000000000D+00  0.0000000000000D+00
   201  2.0000000000000D+00  0.0000000000000D+00  0.0000000000000D+00
   202  2.0100000000000D+00  0.0000000000000D+00  0.0000000000000D+00
   203  2.0200000000000D+00  0.0000000000000D+00  0.0000000000000D+00
   204  2.0300000000000D+00  0.0000000000000D+00  0.0000000000000D+00
   205  2.0400000000000D+00  0.0000000000000D+00  0.0000000000000D+00
   206  2.0500000000000D+00  0.0000000000000D+00  0.0000000000000D+00
   207  2.0600000000000D+00  0.0000000000000D+00  0.0000000000000D+00
   208  2.0700000000000D+00  0.0000000000000D+00  0.0000000000000D+00
   209  2.0800000000000D+00  0.0000000000000D+00  0.0000000000000D+00
   210  2.0900000000000D+00  0.0000000000000D+00  0.0000000000000D+00
   211  2.1000000000000D+00  0.0000000000000D+00  0.0000000000000D+00
   212  2.1100000000000D+00  0.0000000000000D+00  0.0000000000000D+00
   213  2.1200000000000D+00  0.0000000000000D+00  0.0000000000000D+00
   214  2.1300000000000D+00  0.0000000000000D+00  0.0000000000000D+00
   215  2.1400000000000D+00  0.0000000000000D+00  0.0000000000000D+00
   216  2.1500000000000D+00  0.0000000000000D+00  0.0000000000000D+00
   217  2.1600000000000D+00  0.0000000000000D+00  0.0000000000000D+00
   218  2.1700000000000D+00  0.0000000000000D+00  0.0000000000000D+00
   219  2.1800000000000D+00  0.0000000000000D+00  0.0000000000000D+00
   220  2.1900000000000D+00  0.0000000000000D+00  0.0000000000000D+00
   221  2.2000000000000D+00  0.0000000000000D+00  0.0000000000000D+00
   222  2.2100000000000D+00  0.0000000000000D+00  0.0000000000000D+00
   223  2.2200000000000D+00  0.0000000000000D+00  0.0000000000000D+00
   224  2.2300000000000D+00  0.0000000000000D+00  0.0000000000000D+00
   225  2.2400000000000D+00  0.0000000000000D+00  0.0000000000000D+00
   226  2.2500000000000D+00  0.0000000000000D+00  0.0000000000000D+00
   227  2.2600000000000D+00  0.0000000000000D+00  0.0000000000000D+00
   228  2.2700000000000D+00  0.0000000000000D+00  0.0000000000000D+00
   229  2.2800000000000D+00  0.0000000000000D+00  0.0000000000000D+00
   230  2.2900000000000D+00  0.0000000000000D+00  0.0000000000000D+00
   231  2.3000000000000D+00  0.0000000000000D+00  0.0000000000000D+00
   232  2.3100000000000D+00  0.0000000000000D+00  0.0000000000000D+00
   233  2.3200000000000D+00  0.0000000000000D+00  0.0000000000000D+00
   234  2.3300000000000D+00  0.0000000000000D+00  0.0000000000000D+00
   235  2.3400000000000D+00  0.0000000000000D+00  0.0000000000000D+00
   236  2.3500000000000D+00  0.0000000000000D+00  0.0000000000000D+00
   237  2.3600000000000D+00  0.0000000000000D+00  0.0000000000000D+00
   238  2.3700000000000D+00  0.0000000000000D+00  0.0000000000000D+00
   239  2.3800000000000D+00  0.0000000000000D+00  0.0000000000000D+00
   240  2.3900000000000D+00  0.0000000000000D+00  0.0000000000000D+00
   241  2.4000000000000D+00  0.0000000000000D+00  0.0000000000000D+00
   242  2.4100000000000D+00  0.0000000000000D+00  0.0000000000000D+00
   243  2.4200000000000D+00  0.0000000000000D+00  0.0000000000000D+00
   244  2.4300000000000D+00  0.0000000000000D+00  0.0000000000000D+00
   245  2.4400000000000D+00  0.0000000000000D+00  0.0000000000000D+00
   246  2.4500000000000D+00  0.0000000000000D+00  0.0000000000000D+00
   247  2.4600000000000D+00  0.0000000000000D+00  0.0000000000000D+00
   248  2.4700000000000D+00  0.0000000000000D+00  0.0000000000000D+00
   249  2.4800000000000D+00  0.0000000000000D+00  0.0000000000000D+00
   250  2.4900000000000D+00  0.0000000000000D+00  0.0000000000000D+00
   251  2.5000000000000D+00  0.0000000000000D+00  0.0000000000000D+00
   252  2.5100000000000D+00  0.0000000000000D+00  0.0000000000000D+00
   253  2.5200000000000D+00  0.0000000000000D+00  0.0000000000000D+00
   254  2.5300000000000D+00  0.0000000000000D+00  0.0000000000000D+00
   255  2.5400000000000D+00  0.0000000000000D+00  0.0000000000000D+00
   256  2.5500000000000D+00  0.0000000000000D+00  0.0000000000000D+00
   257  2.5600000000000D+00  0.0000000000000D+00  0.0000000000000D+00
   258  2.5700000000000D+00  0.0000000000000D+00  0.0000000000000D+00
   259  2.5800000000000D+00  0.0000000000000D+00  0.0000000000000D+00
   260  2.5900000000000D+00  0.0000000000000D+00  0.0000000000000D+00
   261  2.6000000000000D+00  0.0000000000000D+00  0.0000000000000D+00
   262  2.6100000000000D+00  0.0000000000000D+00  0.0000000000000D+00
   263  2.6200000000000D+00  0.0000000000000D+00  0.0000000000000D+00
   264  2.6300000000000D+00  0.0000000000000D+00  0.0000000000000D+00
   265  2.6400000000000D+00  0.0000000000000D+00  0.0000000000000D+00
   266  2.6500000000000D+00  0.0000000000000D+00  0.0000000000000D+00
   267  2.6600000000000D+00  0.0000000000000D+00  0.0000000000000D+00
   268  2.6700000000000D+00  0.0000000000000D+00  0.0000000000000D+00
   269  2.6800000000000D+00  0.0000000000000D+00  0.0000000000000D+00
   270  2.6900000000000D+00  0.0000000000000D+00  0.0000000000000D+00
   271  2.7000000000000D+00  0.0000000000000D+00  0.0000000000000D+00
   272  2.7100000000000D+00  0.0000000000000D+00  0.0000000000000D+00
   273  2.7200000000000D+00  0.0000000000000D+00  0.0000000000000D+00
   274  2.7300000000000D+00  0.0000000000000D+00  0.0000000000000D+00
   275  2.7400000000000D+00  0.0000000000000D+00  0.0000000000000D+00
   276  2.7500000000000D+00  0.0000000000000D+00  0.0000000000000D+00
   277  2.7600000000000D+00  0.0000000000000D+00  0.0000000000000D+00
   278  2.7700000000000D+00  0.0000000000000D+00  0.0000000000000D+00
   279  2.7800000000000D+00  0.0000000000000D+00  0.0000000000000D+00
   280  2.7900000000000D+00  0.0000000000000D+00  0.0000000000000D+00
   281  2.8000000000000D+00  0.0000000000000D+00  0.0000000000000D+00
   282  2.8100000000000D+00  0.0000000000000D+00  0.0000000000000D+00
   283  2.8200000000000D+00  0.0000000000000D+00  0.0000000000000D+00
   284  2.8300000000000D+00  0.0000000000000D+00  0.0000000000000D+00
   285  2.8400000000000D+00  0.0000000000000D+00  0.0000000000000D+00
   286  2.8500000000000D+00  0.0000000000000D+00  0.0000000000000D+00
   287  2.8600000000000D+00  0.0000000000000D+00  0.0000000000000D+00
   288  2.8700000000000D+00  0.0000000000000D+00  0.0000000000000D+00
   289  2.8800000000000D+00  0.0000000000000D+00  0.0000000000000D+00
   290  2.8900000000000D+00  0.0000000000000D+00  0.0000000000000D+00
   291  2.9000000000000D+00  0.0000000000000D+00  0.0000000000000D+00
   292  2.9100000000000D+00  0.0000000000000D+00  0.0000000000000D+00
   293  2.9200000000000D+00  0.0000000000000D+00  0.0000000000000D+00
   294  2.9300000000000D+00  0.0000000000000D+00  0.0000000000000D+00
   295  2.9400000000000D+00  0.0000000000000D+00  0.0000000000000D+00
   296  2.9500000000000D+00  0.0000000000000D+00  0.0000000000000D+00
   297  2.9600000000000D+00  0.0000000000000D+00  0.0000000000000D+00
   298  2.9700000000000D+00  0.0000000000000D+00  0.0000000000000D+00
   299  2.9800000000000D+00  0.0000000000000D+00  0.0000000000000D+00
   300  2.9900000000000D+00  0.0000000000000D+00  0.0000000000000D+00
   301  3.0000000000000D+00  0.0000000000000D+00  0.0000000000000D+00
   302  3.0100000000000D+00  0.0000000000000D+00  0.0000000000000D+00
   303  3.0200000000000D+00  0.0000000000000D+00  0.0000000000000D+00
   304  3.0300000000000D+00  0.0000000000000D+00  0.0000000000000D+00
   305  3.0400000000000D+00  0.0000000000000D+00  0.0000000000000D+00
   306  3.0500000000000D+00  0.0000000000000D+00  0.0000000000000D+00
   307  3.0600000000000D+00  0.0000000000000D+00  0.0000000000000D+00
   308  3.0700000000000D+00  0.0000000000000D+00  0.0000000000000D+00
   309  3.0800000000000D+00  0.0000000000000D+00  0.0000000000000D+00
   310  3.0900000000000D+00  0.0000000000000D+00  0.0000000000000D+00
   311  3.1000000000000D+00  0.0000000000000D+00  0.0000000000000D+00
   312  3.1100000000000D+00  0.0000000000000D+00  0.0000000000000D+00
   313  3.1200000000000D+00  0.0000000000000D+00  0.0000000000000D+00
   314  3.1300000000000D+00  0.0000000000000D+00  0.0000000000000D+00
   315  3.1400000000000D+00  0.0000000000000D+00  0.0000000000000D+00
   316  3.1500000000000D+00  0.0000000000000D+00  0.0000000000000D+00
   317  3.1600000000000D+00  0.0000000000000D+00  0.0000000000000D+00
   318  3.1700000000000D+00  0.0000000000000D+00  0.0000000000000D+00
   319  3.1800000000000D+00  0.0000000000000D+00  0.0000000000000D+00
   320  3.1900000000000D+00  0.0000000000000D+00  0.0000000000000D+00
   321  3.2000000000000D+00  0.0000000000000D+00  0.0000000000000D+00
   322  3.2100000000000D+00  0.0000000000000D+00  0.0000000000000D+00
   323  3.2200000000000D+00  0.0000000000000D+00  0.0000000000000D+00
   324  3.2300000000000D+00  0.0000000000000D+00  0.0000000000000D+00
   325  3.2400000000000D+00  0.0000000000000D+00  0.0000000000000D+00
   326  3.2500000000000D+00  0.0000000000000D+00  0.0000000000000D+00
   327  3.2600000000000D+00  0.0000000000000D+00  0.0000000000000D+00
   328  3.2700000000000D+00  0.0000000000000D+00  0.0000000000000D+00
   329  3.2800000000000D+00  0.0000000000000D+00  0.0000000000000D+00
   330  3.2900000000000D+00  0.0000000000000D+00  0.0000000000000D+00
   331  3.3000000000000D+00  0.0000000000000D+00  0.0000000000000D+00
   332  3.3100000000000D+00  0.0000000000000D+00  0.0000000000000D+00
   333  3.3200000000000D+00  0.0000000000000D+00  0.0000000000000D+00
   334  3.3300000000000D+00  0.0000000000000D+00  0.0000000000000D+00
   335  3.3400000000000D+00  0.0000000000000D+00  0.0000000000000D+00
   336  3.3500000000000D+00  0.0000000000000D+00  0.0000000000000D+00
   337  3.3600000000000D+00  0.0000000000000D+00  0.0000000000000D+00
   338  3.3700000000000D+00  0.0000000000000D+00  0.0000000000000D+00
   339  3.3800000000000D+00  0.0000000000000D+00  0.0000000000000D+00
   340  3.3900000000000D+00  0.0000000000000D+00  0.0000000000000D+00
   341  3.4000000000000D+00  0.0000000000000D+00  0.0000000000000D+00
   342  3.4100000000000D+00  0.0000000000000D+00  0.0000000000000D+00
   343  3.4200000000000D+00  0.0000000000000D+00  0.0000000000000D+00
   344  3.4300000000000D+00  0.0000000000000D+00  0.0000000000000D+00
   345  3.4400000000000D+00  0.0000000000000D+00  0.0000000000000D+00
   346  3.4500000000000D+00  0.0000000000000D+00  0.0000000000000D+00
   347  3.4600000000000D+00  0.0000000000000D+00  0.0000000000000D+00
   348  3.4700000000000D+00  0.0000000000000D+00  0.0000000000000D+00
   349  3.4800000000000D+00  0.0000000000000D+00  0.0000000000000D+00
   350  3.4900000000000D+00  0.0000000000000D+00  0.0000000000000D+00
   351  3.5000000000000D+00  0.0000000000000D+00  0.0000000000000D+00
   352  3.5100000000000D+00  0.0000000000000D+00  0.0000000000000D+00
   353  3.5200000000000D+00  0.0000000000000D+00  0.0000000000000D+00
   354  3.5300000000000D+00  0.0000000000000D+00  0.0000000000000D+00
   355  3.5400000000000D+00  0.0000000000000D+00  0.0000000000000D+00
   356  3.5500000000000D+00  0.0000000000000D+00  0.0000000000000D+00
   357  3.5600000000000D+00  0.0000000000000D+00  0.0000000000000D+00
   358  3.5700000000000D+00  0.0000000000000D+00  0.0000000000000D+00
   359  3.5800000000000D+00  0.0000000000000D+00  0.0000000000000D+00
   360  3.5900000000000D+00  0.0000000000000D+00  0.0000000000000D+00
   361  3.6000000000000D+00  0.0000000000000D+00  0.0000000000000D+00
   362  3.6100000000000D+00  0.0000000000000D+00  0.0000000000000D+00
   363  3.6200000000000D+00  0.0000000000000D+00  0.0000000000000D+00
   364  3.6300000000000D+00  0.0000000000000D+00  0.0000000000000D+00
   365  3.6400000000000D+00  0.0000000000000D+00  0.0000000000000D+00
   366  3.6500000000000D+00  0.0000000000000D+00  0.0000000000000D+00
   367  3.6600000000000D+00  0.0000000000000D+00  0.0000000000000D+00
   368  3.6700000000000D+00  0.0000000000000D+00  0.0000000000000D+00
   369  3.6800000000000D+00  0.0000000000000D+00  0.0000000000000D+00
   370  3.6900000000000D+00  0.0000000000000D+00  0.0000000000000D+00
   371  3.7000000000000D+00  0.0000000000000D+00  0.0000000000000D+00
   372  3.7100000000000D+00  0.0000000000000D+00  0.0000000000000D+00
   373  3.7200000000000D+00  0.0000000000000D+00  0.0000000000000D+00
   374  3.7300000000000D+00  0.0000000000000D+00  0.0000000000000D+00
   375  3.7400000000000D+00  0.0000000000000D+00  0.0000000000000D+00
   376  3.7500000000000D+00  0.0000000000000D+00  0.0000000000000D+00
   377  3.7600000000000D+00  0.0000000000000D+00  0.0000000000000D+00
   378  3.7700000000000D+00  0.0000000000000D+00  0.0000000000000D+00
   379  3.7800000000000D+00  0.0000000000000D+00  0.0000000000000D+00
   380  3.7900000000000D+00  0.0000000000000D+00  0.0000000000000D+00
   381  3.8000000000000D+00  0.0000000000000D+00  0.0000000000000D+00
   382  3.8100000000000D+00  0.0000000000000D+00  0.0000000000000D+00
   383  3.8200000000000D+00  0.0000000000000D+00  0.0000000000000D+00
   384  3.8300000000000D+00  0.0000000000000D+00  0.0000000000000D+00
   385  3.8400000000000D+00  0.0000000000000D+00  0.0000000000000D+00
   386  3.8500000000000D+00  0.0000000000000D+00  0.0000000000000D+00
   387  3.8600000000000D+00  0.0000000000000D+00  0.0000000000000D+00
   388  3.8700000000000D+00  0.0000000000000D+00  0.0000000000000D+00
   389  3.8800000000000D+00  0.0000000000000D+00  0.0000000000000D+00
   390  3.8900000000000D+00  0.0000000000000D+00  0.0000000000000D+00
   391  3.9000000000000D+00  0.0000000000000D+00  0.0000000000000D+00
   392  3.9100000000000D+00  0.0000000000000D+00  0.0000000000000D+00
   393  3.9200000000000D+00  0.0000000000000D+00  0.0000000000000D+00
   394  3.9300000000000D+00  0.0000000000000D+00  0.0000000000000D+00
   395  3.9400000000000D+00  0.0000000000000D+00  0.0000000000000D+00
   396  3.9500000000000D+00  0.0000000000000D+00  0.0000000000000D+00
   397  3.9600000000000D+00  0.0000000000000D+00  0.0000000000000D+00
   398  3.9700000000000D+00  0.0000000000000D+00  0.0000000000000D+00
   399  3.9800000000000D+00  0.0000000000000D+00  0.0000000000000D+00
   400  3.9900000000000D+00  0.0000000000000D+00  0.0000000000000D+00
   1                         2.9989584544840D+00  4.5810208485262D-01
     1  0.0000000000000D+00  2.9823452735167D-09 -7.6130221987603D-09
     2  1.0000000000000D-02  2.0024835594033D-03 -1.3178034848534D-03
     3  2.0000000000000D-02  7.9976215529923D-03 -5.2529873378099D-03
     4  3.0000000000000D-02  1.7948595978476D-02 -1.1751138427808D-02
     5  4.0000000000000D-02  3.1794441961453D-02 -2.0722452727474D-02
     6  5.0000000000000D-02  4.9450639495187D-02 -3.2043046815129D-02
     7  6.0000000000000D-02  7.0809930067370D-02 -4.5556763674713D-02
     8  7.0000000000000D-02  9.5743346595851D-02 -6.1077443106884D-02
     9  8.0000000000000D-02  1.2410144211299D-01 -7.8391619451540D-02
    10  9.0000000000000D-02  1.5571569989280D-01 -9.7261602340729D-02
    11  1.0000000000000D-01  1.9040010525062D-01 -1.1742888996917D-01
    12  1.1000000000000D-01  2.2795285710207D-01 -1.3861785899459D-01
    13  1.2000000000000D-01  2.6815819558037D-01 -1.6053967075181D-01
    14  1.3000000000000D-01  3.1078832060767D-01 -1.8289633006001D-01
    15  1.4000000000000D-01  3.5560537531926D-01 -2.0538483057949D-01
    16  1.5000000000000D-01  4.0236346766417D-01 -2.2770131947278D-01
    17  1.6000000000000D-01  4.5081070336070D-01 -2.4954521406747D-01
    18  1.7000000000000D-01  5.0069120367211D-01 -2.7062320430435D-01
    19  1.8000000000000D-01  5.5174708217919D-01 -2.9065307697043D-01
    20  1.9000000000000D-01  6.0372035585115D-01 -3.0936730102147D-01
    21  2.0000000000000D-01  6.5635476723221D-01 -3.2651631764158D-01