O     ONCVPSP-3.3.1  r_core=   1.26150   1.35509   1.26150
      8.0000      6.0000      240606    zatom,zion,pspd
     8 -116133   2     4   600     0    pspcod,pspxc,lmax,lloc,mmax,r2well
  5.99000000  0.00000000  0.00000000    rchrg fchrg qchrg
     2     2     1     0     0    nproj
     1     1           extension_switch
   0                         7.2305446084732D+00  9.9344970567656D-01
     1  0.0000000000000D+00 -7.2783874482951D-09  1.8460849293689D-08
     2  1.0000000000000D-02  1.0672487811946D-01 -4.8039530641371D-02
     3  2.0000000000000D-02  2.1291399878748D-01 -9.5275839806232D-02
     4  3.0000000000000D-02  3.1803757752085D-01 -1.4091908819319D-01
     5  4.0000000000000D-02  4.2157767437857D-01 -1.8420594920332D-01
     6  5.0000000000000D-02  5.2303386465674D-01 -2.2441224101589D-01
     7  6.0000000000000D-02  6.2192861300141D-01 -2.6086482300363D-01
     8  7.0000000000000D-02  7.1781226082019D-01 -2.9295253344230D-01
     9  8.0000000000000D-02  8.1026754415156D-01 -3.2013596392989D-01
    10  9.0000000000000D-02  8.9891356798602D-01 -3.4195588833703D-01
    11  1.0000000000000D-01  9.8340917325696D-01 -3.5804019003236D-01
    12  1.1000000000000D-01  1.0634556441376D+00 -3.6810916006996D-01
    13  1.2000000000000D-01  1.1387987156750D+00 -3.7197907043629D-01
    14  1.3000000000000D-01  1.2092298549287D+00 -3.6956395972926D-01
    15  1.4000000000000D-01  1.2745868024081D+00 -3.6087560314467D-01
    16  1.5000000000000D-01  1.3347533744602D+00 -3.4602167371299D-01
    17  1.6000000000000D-01  1.3896585410835D+00 -3.2520213668727D-01
    18  1.7000000000000D-01  1.4392748071694D+00 -2.9870395315918D-01
    19  1.8000000000000D-01  1.4836159381415D+00 -2.6689420171439D-01
    20  1.9000000000000D-01  1.5227340831271D+00 -2.3021175759811D-01
    21  2.0000000000000D-01  1.5567163599201D+00 -1.8915769685198D-01
    22  2.1000000000000D-01  1.5856809758660D+00 -1.4428461766011D-01
    23  2.2000000000000D-01  1.6097729672264D+00 -9.6185092219195D-02
    24  2.3000000000000D-01  1.6291596464048D+00 -4.5479479412882D-02
    25  2.4000000000000D-01  1.6440258514908D+00  7.1966589176133D-03
    26  2.5000000000000D-01  1.6545690958268D+00  6.1205287504228D-02
    27  2.6000000000000D-01  1.6609947166315D+00  1.1591851944014D-01
    28  2.7000000000000D-01  1.6635111211203D+00  1.7073087867828D-01
    29  2.8000000000000D-01  1.6623252260374D+00  2.2507095860435D-01
    30  2.9000000000000D-01  1.6576381821102D+00  2.7841224375666D-01
    31  3.0000000000000D-01  1.6496414687362D+00  3.3028287806112D-01
    32  3.1000000000000D-01  1.6385134363228D+00  3.8027418353195D-01
    33  3.2000000000000D-01  1.6244163642855D+00  4.2804775787774D-01
    34  3.3000000000000D-01  1.6074940919313D+00  4.7334100738750D-01
    35  3.4000000000000D-01  1.5878702675313D+00  5.1597100232716D-01
    36  3.5000000000000D-01  1.5656472480389D+00  5.5583657526538D-01
    37  3.6000000000000D-01  1.5409056683913D+00  5.9291861764200D-01
    38  3.7000000000000D-01  1.5137046853941D+00  6.2727856581601D-01
    39  3.8000000000000D-01  1.4840828871142D+00  6.5905510410169D-01
    40  3.9000000000000D-01  1.4520598447555D+00  6.8845914820998D-01
    41  4.0000000000000D-01  1.4176382704489D+00  7.1576720736884D-01
    42  4.1000000000000D-01  1.3808067315121D+00  7.4131325651196D-01
    43  4.2000000000000D-01  1.3415428597847D+00  7.6547928065505D-01
    44  4.3000000000000D-01  1.2998169838543D+00  7.8868468130697D-01
    45  4.4000000000000D-01  1.2555961025828D+00  8.1137475894142D-01
    46  4.5000000000000D-01  1.2088481105049D+00  8.3400850568506D-01
    47  4.6000000000000D-01  1.1595461795690D+00  8.5704595805241D-01
    48  4.7000000000000D-01  1.1076731974553D+00  8.8093537043771D-01
    49  4.8000000000000D-01  1.0532261604265D+00  9.0610047591921D-01
    50  4.9000000000000D-01  9.9622041841451D-01  9.3292810159488D-01
    51  5.0000000000000D-01  9.3669367182075D-01  9.6175640109589D-01
    52  5.1000000000000D-01  8.7470962331157D-01  9.9286395717842D-01
    53  5.2000000000000D-01  8.1036119364752D-01  1.0264599925071D+00
    54  5.3000000000000D-01  7.4377321821408D-01  1.0626759071703D+00
    55  5.4000000000000D-01  6.7510455026924D-01  1.1015583374754D+00
    56  5.5000000000000D-01  6.0454950785141D-01  1.1430639025267D+00
    57  5.6000000000000D-01  5.3233861357684D-01  1.1870557735578D+00
    58  5.7000000000000D-01  4.5873858996942D-01  1.2333021665631D+00
    59  5.8000000000000D-01  3.8405158731077D-01  1.2814768219506D+00
    60  5.9000000000000D-01  3.0861363589662D-01  1.3311614966950D+00
    61  6.0000000000000D-01  2.3279232991367D-01  1.3818504551148D+00
    62  6.1000000000000D-01  1.5698376543065D-01  1.4329569051574D+00
    63  6.2000000000000D-01  8.1608770112918D-02  1.4838212882519D+00
    64  6.3000000000000D-01  7.1084768077515D-03  1.5337212934283D+00
    65  6.4000000000000D-01 -6.6060693158553D-02  1.5818834312019D+00
    66  6.5000000000000D-01 -1.3743255845323D-01  1.6274959701070D+00
    67  6.6000000000000D-01 -2.0653712821774D-01  1.6697230098159D+00
    68  6.7000000000000D-01 -2.7290687507422D-01  1.7077194397196D+00
    69  6.8000000000000D-01 -3.3608322322285D-01  1.7406465113033D+00
    70  6.9000000000000D-01 -3.9562313822171D-01  1.7676877371606D+00
    71  7.0000000000000D-01 -4.5110570111743D-01  1.7880648192451D+00
    72  7.1000000000000D-01 -5.0213854783927D-01  1.8010533042472D+00
    73  7.2000000000000D-01 -5.4836405525517D-01  1.8059976650050D+00
    74  7.3000000000000D-01 -5.8946515799518D-01  1.8023255135517D+00
    75  7.4000000000000D-01 -6.2517068508919D-01  1.7895606638106D+00
    76  7.5000000000000D-01 -6.5526011247643D-01  1.7673347796417D+00
    77  7.6000000000000D-01 -6.7956763657929D-01  1.7353973670658D+00
    78  7.7000000000000D-01 -6.9798548505123D-01  1.6936238971723D+00
    79  7.8000000000000D-01 -7.1046639345278D-01  1.6420218783048D+00
    80  7.9000000000000D-01 -7.1702519070525D-01  1.5807347319182D+00
    81  8.0000000000000D-01 -7.1773945147787D-01  1.5100433653934D+00
    82  8.1000000000000D-01 -7.1274918990589D-01  1.4303653763757D+00
    83  8.2000000000000D-01 -7.0225558591815D-01  1.3422518661165D+00
    84  8.3000000000000D-01 -6.8651875266355D-01  1.2463818830544D+00
    85  8.4000000000000D-01 -6.6585457074915D-01  1.1435545616567D+00
    86  8.5000000000000D-01 -6.4063063191512D-01  1.0346790645287D+00
    87  8.6000000000000D-01 -6.1126135105961D-01  9.2076247719406D-01
    88  8.7000000000000D-01 -5.7820232087712D-01  8.0289584394041D-01
    89  8.8000000000000D-01 -5.4194399749936D-01  6.8223856898740D-01
    90  8.9000000000000D-01 -5.0300481815069D-01  5.6000143925839D-01
    91  9.0000000000000D-01 -4.6192386271021D-01  4.3742855260282D-01
    92  9.1000000000000D-01 -4.1925317999072D-01  3.1577845787117D-01
    93  9.2000000000000D-01 -3.7554990632274D-01  1.9630483033146D-01
    94  9.3000000000000D-01 -3.3136830852985D-01  8.0237017177307D-02
    95  9.4000000000000D-01 -2.8725188549784D-01 -3.1239206943192D-02
    96  9.5000000000000D-01 -2.4372566222135D-01 -1.3700033548928D-01
    97  9.6000000000000D-01 -2.0128880744534D-01 -2.3600294507982D-01
    98  9.7000000000000D-01 -1.6040770084990D-01 -3.2730031185797D-01
    99  9.8000000000000D-01 -1.2150956821122D-01 -4.1005753040030D-01
   100  9.9000000000000D-01 -8.4976793121041D-02 -4.8356486177063D-01
   101  1.0000000000000D+00 -5.1142002522577D-02 -5.4724906643533D-01
   102  1.0100000000000D+00 -2.0284009126179D-02 -6.0068251420764D-01
   103  1.0200000000000D+00  7.3753209946337D-03 -6.4358990126152D-01
   104  1.0300000000000D+00  3.1673224010546D-02 -6.7585244703152D-01
   105  1.0400000000000D+00  5.2507182929029D-02 -6.9750948839292D-01
   106  1.0500000000000D+00  6.9835046029959D-02 -7.0875743736386D-01
   107  1.0600000000000D+00  8.3674120621159D-02 -7.0994611111201D-01
   108  1.0700000000000D+00  9.4099264875095D-02 -7.0157249750078D-01
   109  1.0800000000000D+00  1.0124001707257D-01 -6.8427206176195D-01
   110  1.0900000000000D+00  1.0527681995896D-01 -6.5880774685690D-01
   111  1.1000000000000D+00  1.0643641517583D-01 -6.2605686415721D-01
   112  1.1100000000000D+00  1.0498649624197D-01 -5.8699610556718D-01
   113  1.1200000000000D+00  1.0122972551507D-01 -5.4268495144701D-01
   114  1.1300000000000D+00  9.5497230287334D-02 -4.9424777344566D-01
   115  1.1400000000000D+00  8.8141704426710D-02 -4.4285495995899D-01
   116  1.1500000000000D+00  7.9530248442595D-02 -3.8970340834399D-01
   117  1.1600000000000D+00  7.0037088326660D-02 -3.3599674686268D-01
   118  1.1700000000000D+00  6.0036317689791D-02 -2.8292566053460D-01
   119  1.1800000000000D+00  4.9894804908105D-02 -2.3164868580193D-01
   120  1.1900000000000D+00  3.9965299078167D-02 -1.8327354351308D-01
   121  1.2000000000000D+00  3.0580327215595D-02 -1.3884062495618D-01
   122  1.2100000000000D+00  2.2046220673198D-02 -9.9306772676177D-02
   123  1.2200000000000D+00  1.4637000210633D-02 -6.5532224503560D-02
   124  1.2300000000000D+00  8.5767620979811D-03 -3.8216212035094D-02
   125  1.2400000000000D+00  4.0195829201392D-03 -1.7820798229641D-02
   126  1.2500000000000D+00  1.2268677496478D-03 -5.3482643428177D-03
   127  1.2600000000000D+00  9.0579268327582D-05 -2.7449000356362D-04
   128  1.2700000000000D+00 -7.5352888826954D-05  3.9170622168869D-04
   129  1.2800000000000D+00  2.0564617138720D-05 -1.0225400292874D-04
   130  1.2900000000000D+00  9.6882793037538D-06 -4.7402483014128D-05
   131  1.3000000000000D+00 -4.9288869174718D-06  2.4957315075992D-05
   132  1.3100000000000D+00 -3.6415536068112D-08 -3.2150812256071D-08
   133  1.3200000000000D+00 -3.7076707651198D-08 -3.2734552212475D-08
   134  1.3300000000000D+00  0.0000000000000D+00  0.0000000000000D+00
   135  1.3400000000000D+00  0.0000000000000D+00  0.0000000000000D+00
   136  1.3500000000000D+00  0.0000000000000D+00  0.0000000000000D+00
   137  1.3600000000000D+00  0.0000000000000D+00  0.0000000000000D+00
   138  1.3700000000000D+00  0.0000000000000D+00  0.0000000000000D+00
   139  1.3800000000000D+00  0.0000000000000D+00  0.0000000000000D+00
   140  1.3900000000000D+00  0.0000000000000D+00  0.0000000000000D+00
   141  1.4000000000000D+00  0.0000000000000D+00  0.0000000000000D+00
   142  1.4100000000000D+00  0.0000000000000D+00  0.0000000000000D+00
   143  1.4200000000000D+00  0.0000000000000D+00  0.0000000000000D+00
   144  1.4300000000000D+00  0.0000000000000D+00  0.0000000000000D+00
   145  1.4400000000000D+00  0.0000000000000D+00  0.0000000000000D+00
   146  1.4500000000000D+00  0.0000000000000D+00  0.0000000000000D+00
   147  1.4600000000000D+00  0.0000000000000D+00  0.0000000000000D+00
   148  1.4700000000000D+00  0.0000000000000D+00  0.0000000000000D+00
   149  1.4800000000000D+00  0.0000000000000D+00  0.0000000000000D+00
   150  1.4900000000000D+00  0.0000000000000D+00  0.0000000000000D+00
   151  1.5000000000000D+00  0.0000000000000D+00  0.0000000000000D+00
   152  1.5100000000000D+00  0.0000000000000D+00  0.0000000000000D+00
   153  1.5200000000000D+00  0.0000000000000D+00  0.0000000000000D+00
   154  1.5300000000000D+00  0.0000000000000D+00  0.0000000000000D+00
   155  1.5400000000000D+00  0.0000000000000D+00  0.0000000000000D+00
   156  1.5500000000000D+00  0.0000000000000D+00  0.0000000000000D+00
   157  1.5600000000000D+00  0.0000000000000D+00  0.0000000000000D+00
   158  1.5700000000000D+00  0.0000000000000D+00  0.0000000000000D+00
   159  1.5800000000000D+00  0.0000000000000D+00  0.0000000000000D+00
   160  1.5900000000000D+00  0.0000000000000D+00  0.0000000000000D+00
   161  1.6000000000000D+00  0.0000000000000D+00  0.0000000000000D+00
   162  1.6100000000000D+00  0.0000000000000D+00  0.0000000000000D+00
   163  1.6200000000000D+00  0.0000000000000D+00  0.0000000000000D+00
   164  1.6300000000000D+00  0.0000000000000D+00  0.0000000000000D+00
   165  1.6400000000000D+00  0.0000000000000D+00  0.0000000000000D+00
   166  1.6500000000000D+00  0.0000000000000D+00  0.0000000000000D+00
   167  1.6600000000000D+00  0.0000000000000D+00  0.0000000000000D+00
   168  1.6700000000000D+00  0.0000000000000D+00  0.0000000000000D+00
   169  1.6800000000000D+00  0.0000000000000D+00  0.0000000000000D+00
   170  1.6900000000000D+00  0.0000000000000D+00  0.0000000000000D+00
   171  1.7000000000000D+00  0.0000000000000D+00  0.0000000000000D+00
   172  1.7100000000000D+00  0.0000000000000D+00  0.0000000000000D+00
   173  1.7200000000000D+00  0.0000000000000D+00  0.0000000000000D+00
   174  1.7300000000000D+00  0.0000000000000D+00  0.0000000000000D+00
   175  1.7400000000000D+00  0.0000000000000D+00  0.0000000000000D+00
   176  1.7500000000000D+00  0.0000000000000D+00  0.0000000000000D+00
   177  1.7600000000000D+00  0.0000000000000D+00  0.0000000000000D+00
   178  1.7700000000000D+00  0.0000000000000D+00  0.0000000000000D+00
   179  1.7800000000000D+00  0.0000000000000D+00  0.0000000000000D+00
   180  1.7900000000000D+00  0.0000000000000D+00  0.0000000000000D+00
   181  1.8000000000000D+00  0.0000000000000D+00  0.0000000000000D+00
   182  1.8100000000000D+00  0.0000000000000D+00  0.0000000000000D+00
   183  1.8200000000000D+00  0.0000000000000D+00  0.0000000000000D+00
   184  1.8300000000000D+00  0.0000000000000D+00  0.0000000000000D+00
   185  1.8400000000000D+00  0.0000000000000D+00  0.0000000000000D+00
   186  1.8500000000000D+00  0.0000000000000D+00  0.0000000000000D+00
   187  1.8600000000000D+00  0.0000000000000D+00  0.0000000000000D+00
   188  1.8700000000000D+00  0.0000000000000D+00  0.0000000000000D+00
   189  1.8800000000000D+00  0.0000000000000D+00  0.0000000000000D+00
   190  1.8900000000000D+00  0.0000000000000D+00  0.0000000000000D+00
   191  1.9000000000000D+00  0.0000000000000D+00  0.0000000000000D+00
   192  1.9100000000000D+00  0.0000000000000D+00  0.0000000000000D+00
   193  1.9200000000000D+00  0.0000000000000D+00  0.0000000000000D+00
   194  1.9300000000000D+00  0.0000000000000D+00  0.0000000000000D+00
   195  1.9400000000000D+00  0.0000000000000D+00  0.0000000000000D+00
   196  1.9500000000000D+00  0.0000000000000D+00  0.0000000000000D+00
   197  1.9600000000000D+00  0.0000000000000D+00  0.0000000000000D+00
   198  1.9700000000000D+00  0.0000000000000D+00  0.0000000000000D+00
   199  1.9800000000000D+00  0.0000000000000D+00  0.0000000000000D+00
   200  1.9900000000000D+00  0.0000000000000D+00  0.0000000000000D+00
   201  2.0000000000000D+00  0.0000000000000D+00  0.0000000000000D+00
   202  2.0100000000000D+00  0.0000000000000D+00  0.0000000000000D+00
   203  2.0200000000000D+00  0.0000000000000D+00  0.0000000000000D+00
   204  2.0300000000000D+00  0.0000000000000D+00  0.0000000000000D+00
   205  2.0400000000000D+00  0.0000000000000D+00  0.0000000000000D+00
   206  2.0500000000000D+00  0.0000000000000D+00  0.0000000000000D+00
   207  2.0600000000000D+00  0.0000000000000D+00  0.0000000000000D+00
   208  2.0700000000000D+00  0.0000000000000D+00  0.0000000000000D+00
   209  2.0800000000000D+00  0.0000000000000D+00  0.0000000000000D+00
   210  2.0900000000000D+00  0.0000000000000D+00  0.0000000000000D+00
   211  2.1000000000000D+00  0.0000000000000D+00  0.0000000000000D+00
   212  2.1100000000000D+00  0.0000000000000D+00  0.0000000000000D+00
   213  2.1200000000000D+00  0.0000000000000D+00  0.0000000000000D+00
   214  2.1300000000000D+00  0.0000000000000D+00  0.0000000000000D+00
   215  2.1400000000000D+00  0.0000000000000D+00  0.0000000000000D+00
   216  2.1500000000000D+00  0.0000000000000D+00  0.0000000000000D+00
   217  2.1600000000000D+00  0.0000000000000D+00  0.0000000000000D+00
   218  2.1700000000000D+00  0.0000000000000D+00  0.0000000000000D+00
   219  2.1800000000000D+00  0.0000000000000D+00  0.0000000000000D+00
   220  2.1900000000000D+00  0.0000000000000D+00  0.0000000000000D+00
   221  2.2000000000000D+00  0.0000000000000D+00  0.0000000000000D+00
   222  2.2100000000000D+00  0.0000000000000D+00  0.0000000000000D+00
   223  2.2200000000000D+00  0.0000000000000D+00  0.0000000000000D+00
   224  2.2300000000000D+00  0.0000000000000D+00  0.0000000000000D+00
   225  2.2400000000000D+00  0.0000000000000D+00  0.0000000000000D+00
   226  2.2500000000000D+00  0.0000000000000D+00  0.0000000000000D+00
   227  2.2600000000000D+00  0.0000000000000D+00  0.0000000000000D+00
   228  2.2700000000000D+00  0.0000000000000D+00  0.0000000000000D+00
   229  2.2800000000000D+00  0.0000000000000D+00  0.0000000000000D+00
   230  2.2900000000000D+00  0.0000000000000D+00  0.0000000000000D+00
   231  2.3000000000000D+00  0.0000000000000D+00  0.0000000000000D+00
   232  2.3100000000000D+00  0.0000000000000D+00  0.0000000000000D+00
   233  2.3200000000000D+00  0.0000000000000D+00  0.0000000000000D+00
   234  2.3300000000000D+00  0.0000000000000D+00  0.0000000000000D+00
   235  2.3400000000000D+00  0.0000000000000D+00  0.0000000000000D+00
   236  2.3500000000000D+00  0.0000000000000D+00  0.0000000000000D+00
   237  2.3600000000000D+00  0.0000000000000D+00  0.0000000000000D+00
   238  2.3700000000000D+00  0.0000000000000D+00  0.0000000000000D+00
   239  2.3800000000000D+00  0.0000000000000D+00  0.0000000000000D+00
   240  2.3900000000000D+00  0.0000000000000D+00  0.0000000000000D+00
   241  2.4000000000000D+00  0.0000000000000D+00  0.0000000000000D+00
   242  2.4100000000000D+00  0.0000000000000D+00  0.0000000000000D+00
   243  2.4200000000000D+00  0.0000000000000D+00  0.0000000000000D+00
   244  2.4300000000000D+00  0.0000000000000D+00  0.0000000000000D+00
   245  2.4400000000000D+00  0.0000000000000D+00  0.0000000000000D+00
   246  2.4500000000000D+00  0.0000000000000D+00  0.0000000000000D+00
   247  2.4600000000000D+00  0.0000000000000D+00  0.0000000000000D+00
   248  2.4700000000000D+00  0.0000000000000D+00  0.0000000000000D+00
   249  2.4800000000000D+00  0.0000000000000D+00  0.0000000000000D+00
   250  2.4900000000000D+00  0.0000000000000D+00  0.0000000000000D+00
   251  2.5000000000000D+00  0.0000000000000D+00  0.0000000000000D+00
   252  2.5100000000000D+00  0.0000000000000D+00  0.0000000000000D+00
   253  2.5200000000000D+00  0.0000000000000D+00  0.0000000000000D+00
   254  2.5300000000000D+00  0.0000000000000D+00  0.0000000000000D+00
   255  2.5400000000000D+00  0.0000000000000D+00  0.0000000000000D+00
   256  2.5500000000000D+00  0.0000000000000D+00  0.0000000000000D+00
   257  2.5600000000000D+00  0.0000000000000D+00  0.0000000000000D+00
   258  2.5700000000000D+00  0.0000000000000D+00  0.0000000000000D+00
   259  2.5800000000000D+00  0.0000000000000D+00  0.0000000000000D+00
   260  2.5900000000000D+00  0.0000000000000D+00  0.0000000000000D+00
   261  2.6000000000000D+00  0.0000000000000D+00  0.0000000000000D+00
   262  2.6100000000000D+00  0.0000000000000D+00  0.0000000000000D+00
   263  2.6200000000000D+00  0.0000000000000D+00  0.0000000000000D+00
   264  2.6300000000000D+00  0.0000000000000D+00  0.0000000000000D+00
   265  2.6400000000000D+00  0.0000000000000D+00  0.0000000000000D+00
   266  2.6500000000000D+00  0.0000000000000D+00  0.0000000000000D+00
   267  2.6600000000000D+00  0.0000000000000D+00  0.0000000000000D+00
   268  2.6700000000000D+00  0.0000000000000D+00  0.0000000000000D+00
   269  2.6800000000000D+00  0.0000000000000D+00  0.0000000000000D+00
   270  2.6900000000000D+00  0.0000000000000D+00  0.0000000000000D+00
   271  2.7000000000000D+00  0.0000000000000D+00  0.0000000000000D+00
   272  2.7100000000000D+00  0.0000000000000D+00  0.0000000000000D+00
   273  2.7200000000000D+00  0.0000000000000D+00  0.0000000000000D+00
   274  2.7300000000000D+00  0.0000000000000D+00  0.0000000000000D+00
   275  2.7400000000000D+00  0.0000000000000D+00  0.0000000000000D+00
   276  2.7500000000000D+00  0.0000000000000D+00  0.0000000000000D+00
   277  2.7600000000000D+00  0.0000000000000D+00  0.0000000000000D+00
   278  2.7700000000000D+00  0.0000000000000D+00  0.0000000000000D+00
   279  2.7800000000000D+00  0.0000000000000D+00  0.0000000000000D+00
   280  2.7900000000000D+00  0.0000000000000D+00  0.0000000000000D+00
   281  2.8000000000000D+00  0.0000000000000D+00  0.0000000000000D+00
   282  2.8100000000000D+00  0.0000000000000D+00  0.0000000000000D+00
   283  2.8200000000000D+00  0.0000000000000D+00  0.0000000000000D+00
   284  2.8300000000000D+00  0.0000000000000D+00  0.0000000000000D+00
   285  2.8400000000000D+00  0.0000000000000D+00  0.0000000000000D+00
   286  2.8500000000000D+00  0.0000000000000D+00  0.0000000000000D+00
   287  2.8600000000000D+00  0.0000000000000D+00  0.0000000000000D+00
   288  2.8700000000000D+00  0.0000000000000D+00  0.0000000000000D+00
   289  2.8800000000000D+00  0.0000000000000D+00  0.0000000000000D+00
   290  2.8900000000000D+00  0.0000000000000D+00  0.0000000000000D+00
   291  2.9000000000000D+00  0.0000000000000D+00  0.0000000000000D+00
   292  2.9100000000000D+00  0.0000000000000D+00  0.0000000000000D+00
   293  2.9200000000000D+00  0.0000000000000D+00  0.0000000000000D+00
   294  2.9300000000000D+00  0.0000000000000D+00  0.0000000000000D+00
   295  2.9400000000000D+00  0.0000000000000D+00  0.0000000000000D+00
   296  2.9500000000000D+00  0.0000000000000D+00  0.0000000000000D+00
   297  2.9600000000000D+00  0.0000000000000D+00  0.0000000000000D+00
   298  2.9700000000000D+00  0.0000000000000D+00  0.0000000000000D+00
   299  2.9800000000000D+00  0.0000000000000D+00  0.0000000000000D+00
   300  2.9900000000000D+00  0.0000000000000D+00  0.0000000000000D+00
   301  3.0000000000000D+00  0.0000000000000D+00  0.0000000000000D+00
   302  3.0100000000000D+00  0.0000000000000D+00  0.0000000000000D+00
   303  3.0200000000000D+00  0.0000000000000D+00  0.0000000000000D+00
   304  3.0300000000000D+00  0.0000000000000D+00  0.0000000000000D+00
   305  3.0400000000000D+00  0.0000000000000D+00  0.0000000000000D+00
   306  3.0500000000000D+00  0.0000000000000D+00  0.0000000000000D+00
   307  3.0600000000000D+00  0.0000000000000D+00  0.0000000000000D+00
   308  3.0700000000000D+00  0.0000000000000D+00  0.0000000000000D+00
   309  3.0800000000000D+00  0.0000000000000D+00  0.0000000000000D+00
   310  3.0900000000000D+00  0.0000000000000D+00  0.0000000000000D+00
   311  3.1000000000000D+00  0.0000000000000D+00  0.0000000000000D+00
   312  3.1100000000000D+00  0.0000000000000D+00  0.0000000000000D+00
   313  3.1200000000000D+00  0.0000000000000D+00  0.0000000000000D+00
   314  3.1300000000000D+00  0.0000000000000D+00  0.0000000000000D+00
   315  3.1400000000000D+00  0.0000000000000D+00  0.0000000000000D+00
   316  3.1500000000000D+00  0.0000000000000D+00  0.0000000000000D+00
   317  3.1600000000000D+00  0.0000000000000D+00  0.0000000000000D+00
   318  3.1700000000000D+00  0.0000000000000D+00  0.0000000000000D+00
   319  3.1800000000000D+00  0.0000000000000D+00  0.0000000000000D+00
   320  3.1900000000000D+00  0.0000000000000D+00  0.0000000000000D+00
   321  3.2000000000000D+00  0.0000000000000D+00  0.0000000000000D+00
   322  3.2100000000000D+00  0.0000000000000D+00  0.0000000000000D+00
   323  3.2200000000000D+00  0.0000000000000D+00  0.0000000000000D+00
   324  3.2300000000000D+00  0.0000000000000D+00  0.0000000000000D+00
   325  3.2400000000000D+00  0.0000000000000D+00  0.0000000000000D+00
   326  3.2500000000000D+00  0.0000000000000D+00  0.0000000000000D+00
   327  3.2600000000000D+00  0.0000000000000D+00  0.0000000000000D+00
   328  3.2700000000000D+00  0.0000000000000D+00  0.0000000000000D+00
   329  3.2800000000000D+00  0.0000000000000D+00  0.0000000000000D+00
   330  3.2900000000000D+00  0.0000000000000D+00  0.0000000000000D+00
   331  3.3000000000000D+00  0.0000000000000D+00  0.0000000000000D+00
   332  3.3100000000000D+00  0.0000000000000D+00  0.0000000000000D+00
   333  3.3200000000000D+00  0.0000000000000D+00  0.0000000000000D+00
   334  3.3300000000000D+00  0.0000000000000D+00  0.0000000000000D+00
   335  3.3400000000000D+00  0.0000000000000D+00  0.0000000000000D+00
   336  3.3500000000000D+00  0.0000000000000D+00  0.0000000000000D+00
   337  3.3600000000000D+00  0.0000000000000D+00  0.0000000000000D+00
   338  3.3700000000000D+00  0.0000000000000D+00  0.0000000000000D+00
   339  3.3800000000000D+00  0.0000000000000D+00  0.0000000000000D+00
   340  3.3900000000000D+00  0.0000000000000D+00  0.0000000000000D+00
   341  3.4000000000000D+00  0.0000000000000D+00  0.0000000000000D+00
   342  3.4100000000000D+00  0.0000000000000D+00  0.0000000000000D+00
   343  3.4200000000000D+00  0.0000000000000D+00  0.0000000000000D+00
   344  3.4300000000000D+00  0.0000000000000D+00  0.0000000000000D+00
   345  3.4400000000000D+00  0.0000000000000D+00  0.0000000000000D+00
   346  3.4500000000000D+00  0.0000000000000D+00  0.0000000000000D+00
   347  3.4600000000000D+00  0.0000000000000D+00  0.0000000000000D+00
   348  3.4700000000000D+00  0.0000000000000D+00  0.0000000000000D+00
   349  3.4800000000000D+00  0.0000000000000D+00  0.0000000000000D+00
   350  3.4900000000000D+00  0.0000000000000D+00  0.0000000000000D+00
   351  3.5000000000000D+00  0.0000000000000D+00  0.0000000000000D+00
   352  3.5100000000000D+00  0.0000000000000D+00  0.0000000000000D+00
   353  3.5200000000000D+00  0.0000000000000D+00  0.0000000000000D+00
   354  3.5300000000000D+00  0.0000000000000D+00  0.0000000000000D+00
   355  3.5400000000000D+00  0.0000000000000D+00  0.0000000000000D+00
   356  3.5500000000000D+00  0.0000000000000D+00  0.0000000000000D+00
   357  3.5600000000000D+00  0.0000000000000D+00  0.0000000000000D+00
   358  3.5700000000000D+00  0.0000000000000D+00  0.0000000000000D+00
   359  3.5800000000000D+00  0.0000000000000D+00  0.0000000000000D+00
   360  3.5900000000000D+00  0.0000000000000D+00  0.0000000000000D+00
   361  3.6000000000000D+00  0.0000000000000D+00  0.0000000000000D+00
   362  3.6100000000000D+00  0.0000000000000D+00  0.0000000000000D+00
   363  3.6200000000000D+00  0.0000000000000D+00  0.0000000000000D+00
   364  3.6300000000000D+00  0.0000000000000D+00  0.0000000000000D+00
   365  3.6400000000000D+00  0.0000000000000D+00  0.0000000000000D+00
   366  3.6500000000000D+00  0.0000000000000D+00  0.0000000000000D+00
   367  3.6600000000000D+00  0.0000000000000D+00  0.0000000000000D+00
   368  3.6700000000000D+00  0.0000000000000D+00  0.0000000000000D+00
   369  3.6800000000000D+00  0.0000000000000D+00  0.0000000000000D+00
   370  3.6900000000000D+00  0.0000000000000D+00  0.0000000000000D+00
   371  3.7000000000000D+00  0.0000000000000D+00  0.0000000000000D+00
   372  3.7100000000000D+00  0.0000000000000D+00  0.0000000000000D+00
   373  3.7200000000000D+00  0.0000000000000D+00  0.0000000000000D+00
   374  3.7300000000000D+00  0.0000000000000D+00  0.0000000000000D+00
   375  3.7400000000000D+00  0.0000000000000D+00  0.0000000000000D+00
   376  3.7500000000000D+00  0.0000000000000D+00  0.0000000000000D+00
   377  3.7600000000000D+00  0.0000000000000D+00  0.0000000000000D+00
   378  3.7700000000000D+00  0.0000000000000D+00  0.0000000000000D+00
   379  3.7800000000000D+00  0.0000000000000D+00  0.0000000000000D+00
   380  3.7900000000000D+00  0.0000000000000D+00  0.0000000000000D+00
   381  3.8000000000000D+00  0.0000000000000D+00  0.0000000000000D+00
   382  3.8100000000000D+00  0.0000000000000D+00  0.0000000000000D+00
   383  3.8200000000000D+00  0.0000000000000D+00  0.0000000000000D+00
   384  3.8300000000000D+00  0.0000000000000D+00  0.0000000000000D+00
   385  3.8400000000000D+00  0.0000000000000D+00  0.0000000000000D+00
   386  3.8500000000000D+00  0.0000000000000D+00  0.0000000000000D+00
   387  3.8600000000000D+00  0.0000000000000D+00  0.0000000000000D+00
   388  3.8700000000000D+00  0.0000000000000D+00  0.0000000000000D+00
   389  3.8800000000000D+00  0.0000000000000D+00  0.0000000000000D+00
   390  3.8900000000000D+00  0.0000000000000D+00  0.0000000000000D+00
   391  3.9000000000000D+00  0.0000000000000D+00  0.0000000000000D+00
   392  3.9100000000000D+00  0.0000000000000D+00  0.0000000000000D+00
   393  3.9200000000000D+00  0.0000000000000D+00  0.0000000000000D+00
   394  3.9300000000000D+00  0.0000000000000D+00  0.0000000000000D+00
   395  3.9400000000000D+00  0.0000000000000D+00  0.0000000000000D+00
   396  3.9500000000000D+00  0.0000000000000D+00  0.0000000000000D+00
   397  3.9600000000000D+00  0.0000000000000D+00  0.0000000000000D+00
   398  3.9700000000000D+00  0.0000000000000D+00  0.0000000000000D+00
   399  3.9800000000000D+00  0.0000000000000D+00  0.0000000000000D+00
   400  3.9900000000000D+00  0.0000000000000D+00  0.0000000000000D+00
   401  4.0000000000000D+00  0.0000000000000D+00  0.0000000000000D+00
   402  4.0100000000000D+00  0.0000000000000D+00  0.0000000000000D+00
   403  4.0200000000000D+00  0.0000000000000D+00  0.0000000000000D+00
   404  4.0300000000000D+00  0.0000000000000D+00  0.0000000000000D+00
   405  4.0400000000000D+00  0.0000000000000D+00  0.0000000000000D+00
   406  4.0500000000000D+00  0.0000000000000D+00  0.0000000000000D+00
   407  4.0600000000000D+00  0.0000000000000D+00  0.0000000000000D+00
   408  4.0700000000000D+00  0.0000000000000D+00  0.0000000000000D+00
   409  4.0800000000000D+00  0.0000000000000D+00  0.0000000000000D+00
   410  4.0900000000000D+00  0.0000000000000D+00  0.0000000000000D+00
   411  4.1000000000000D+00  0.0000000000000D+00  0.0000000000000D+00
   412  4.1100000000000D+00  0.0000000000000D+00  0.0000000000000D+00
   413  4.1200000000000D+00  0.0000000000000D+00  0.0000000000000D+00
   414  4.1300000000000D+00  0.0000000000000D+00  0.0000000000000D+00
   415  4.1400000000000D+00  0.0000000000000D+00  0.0000000000000D+00
   416  4.1500000000000D+00  0.0000000000000D+00  0.0000000000000D+00
   417  4.1600000000000D+00  0.0000000000000D+00  0.0000000000000D+00
   418  4.1700000000000D+00  0.0000000000000D+00  0.0000000000000D+00
   419  4.1800000000000D+00  0.0000000000000D+00  0.0000000000000D+00
   420  4.1900000000000D+00  0.0000000000000D+00  0.0000000000000D+00
   421  4.2000000000000D+00  0.0000000000000D+00  0.0000000000000D+00
   422  4.2100000000000D+00  0.0000000000000D+00  0.0000000000000D+00