Ti    ONCVPSP-3.3.1  r_core=   1.35825   1.31050   1.66360
     22.0000     12.0000      240606    zatom,zion,pspd
     8 -116133   2     4   600     0    pspcod,pspxc,lmax,lloc,mmax,r2well
  5.99000000  0.00000000  0.00000000    rchrg fchrg qchrg
     2     2     2     0     0    nproj
     1     1           extension_switch
   0                         1.1321949866562D+01  1.2544741945596D+00
     1  0.0000000000000D+00 -1.6266369362583D-09  5.4343010091884D-09
     2  1.0000000000000D-02  8.8994377815721D-02 -4.5881559108062D-02
     3  2.0000000000000D-02  1.7769164739546D-01 -9.1293344377189D-02
     4  3.0000000000000D-02  2.6579678013472D-01 -1.3577120725803D-01
     5  4.0000000000000D-02  3.5301888001176D-01 -1.7886216354643D-01
     6  5.0000000000000D-02  4.3907318360242D-01 -2.2012976138711D-01
     7  6.0000000000000D-02  5.2368298174262D-01 -2.5915919621591D-01
     8  7.0000000000000D-02  6.0658143866676D-01 -2.9556209478669D-01
     9  8.0000000000000D-02  6.8751328607666D-01 -3.2898089586293D-01
    10  9.0000000000000D-02  7.6623637157857D-01 -3.5909276177831D-01
    11  1.0000000000000D-01  8.4252304323233D-01 -3.8561296277499D-01
    12  1.1000000000000D-01  9.1616135454945D-01 -4.0829768468898D-01
    13  1.2000000000000D-01  9.8695607711285D-01 -4.2694622002365D-01
    14  1.3000000000000D-01  1.0547295110245D+00 -4.4140251258258D-01
    15  1.4000000000000D-01  1.1193220865674D+00 -4.5155603645209D-01
    16  1.5000000000000D-01  1.1805927537439D+00 -4.5734200105922D-01
    17  1.6000000000000D-01  1.2384191596696D+00 -4.5874088509992D-01
    18  1.7000000000000D-01  1.2926976171035D+00 -4.5577731315432D-01
    19  1.8000000000000D-01  1.3433428706326D+00 -4.4851829959518D-01
    20  1.9000000000000D-01  1.3902876701410D+00 -4.3707089477582D-01
    21  2.0000000000000D-01  1.4334821641340D+00 -4.2157927827931D-01
    22  2.1000000000000D-01  1.4728931282073D+00 -4.0222135305946D-01
    23  2.2000000000000D-01  1.5085030464021D+00 -3.7920490245227D-01
    24  2.3000000000000D-01  1.5403090653298D+00 -3.5276337914749D-01
    25  2.4000000000000D-01  1.5683218427476D+00 -3.2315140116228D-01
    26  2.5000000000000D-01  1.5925643136942D+00 -2.9064003454920D-01
    27  2.6000000000000D-01  1.6130703983144D+00 -2.5551194591881D-01
    28  2.7000000000000D-01  1.6298836761150D+00 -2.1805650980040D-01
    29  2.8000000000000D-01  1.6430560515724D+00 -1.7856495636816D-01
    30  2.9000000000000D-01  1.6526464357626D+00 -1.3732564410863D-01
    31  3.0000000000000D-01  1.6587194680085D+00 -9.4619539611024D-02
    32  3.1000000000000D-01  1.6613443004396D+00 -5.0715982857908D-02
    33  3.2000000000000D-01  1.6605934668706D+00 -5.8688112394788D-03
    34  3.3000000000000D-01  1.6565418555290D+00  3.9687090910571D-02
    35  3.4000000000000D-01  1.6492658029526D+00  8.5738758051538D-02
    36  3.5000000000000D-01  1.6388423238535D+00  1.3209757387594D-01
    37  3.6000000000000D-01  1.6253484889589D+00  1.7860112542752D-01
    38  3.7000000000000D-01  1.6088609598333D+00  2.2511445015957D-01
    39  3.8000000000000D-01  1.5894556865132D+00  2.7153065606506D-01
    40  3.9000000000000D-01  1.5672077705012D+00  3.1777090627368D-01
    41  4.0000000000000D-01  1.5421914923183D+00  3.6378377098380D-01
    42  4.1000000000000D-01  1.5144804994772D+00  4.0954396108464D-01
    43  4.2000000000000D-01  1.4841481474469D+00  4.5505046913058D-01
    44  4.3000000000000D-01  1.4512679830190D+00  5.0032415426112D-01
    45  4.4000000000000D-01  1.4159143564867D+00  5.4540481802918D-01
    46  4.5000000000000D-01  1.3781631462785D+00  5.9034782772426D-01
    47  4.6000000000000D-01  1.3380925771992D+00  6.3522035248622D-01
    48  4.7000000000000D-01  1.2957841112586D+00  6.8009728514464D-01
    49  4.8000000000000D-01  1.2513233882639D+00  7.2505692914620D-01
    50  4.9000000000000D-01  1.2048011919437D+00  7.7017653502995D-01
    51  5.0000000000000D-01  1.1563144163941D+00  8.1552777457615D-01
    52  5.1000000000000D-01  1.1059670071073D+00  8.6117224291550D-01
    53  5.2000000000000D-01  1.0538708507772D+00  9.0715707948514D-01
    54  5.3000000000000D-01  1.0001465884852D+00  9.5351079773520D-01
    55  5.4000000000000D-01  9.4492432774208D-01  1.0002394109237D+00
    56  5.5000000000000D-01  8.8834423020121D-01  1.0473229372071D+00
    57  5.6000000000000D-01  8.3055695363722D-01  1.0947123616130D+00
    58  5.7000000000000D-01  7.7172392898429D-01  1.1423271254166D+00
    59  5.8000000000000D-01  7.1201745581357D-01  1.1900532050763D+00
    60  5.9000000000000D-01  6.5162060256463D-01  1.2377418333029D+00
    61  6.0000000000000D-01  5.9072690107844D-01  1.2852089042366D+00
    62  6.1000000000000D-01  5.2953982847319D-01  1.3322350931839D+00
    63  6.2000000000000D-01  4.6827207307422D-01  1.3785667092230D+00
    64  6.3000000000000D-01  4.0714458494351D-01  1.4239172862408D+00
    65  6.4000000000000D-01  3.4638541542409D-01  1.4679699050604D+00
    66  6.5000000000000D-01  2.8622835402283D-01  1.5103802262272D+00
    67  6.6000000000000D-01  2.2691137479031D-01  1.5507802001326D+00
    68  6.7000000000000D-01  1.6867490805542D-01  1.5887824086612D+00
    69  6.8000000000000D-01  1.1175995690442D-01  1.6239849805638D+00
    70  6.9000000000000D-01  5.6406081054061D-02  1.6559770116267D+00
    71  7.0000000000000D-01  2.8492737260964D-03  1.6843444105375D+00
    72  7.1000000000000D-01 -4.8680240292169D-02  1.7086760823927D+00
    73  7.2000000000000D-01 -9.7960255031355D-02  1.7285703540992D+00
    74  7.3000000000000D-01 -1.4477885009864D-01  1.7436415398037D+00
    75  7.4000000000000D-01 -1.8893664052264D-01  1.7535265399225D+00
    76  7.5000000000000D-01 -2.3024897570682D-01  1.7578913645114D+00
    77  7.6000000000000D-01 -2.6854805336560D-01  1.7564374706573D+00
    78  7.7000000000000D-01 -3.0368491472621D-01  1.7489078043312D+00
    79  7.8000000000000D-01 -3.3553128824737D-01  1.7350924397497D+00
    80  7.9000000000000D-01 -3.6398125062207D-01  1.7148337136987D+00
    81  8.0000000000000D-01 -3.8895267588417D-01  1.6880307584546D+00
    82  8.1000000000000D-01 -4.1038844599998D-01  1.6546433448093D+00
    83  8.2000000000000D-01 -4.2825739936305D-01  1.6146949561553D+00
    84  8.3000000000000D-01 -4.4255499708095D-01  1.5682750254854D+00
    85  8.4000000000000D-01 -4.5330369079634D-01  1.5155402793484D+00
    86  8.5000000000000D-01 -4.6055297996539D-01  1.4567151460893D+00
    87  8.6000000000000D-01 -4.6437915096027D-01  1.3920911998908D+00
    88  8.7000000000000D-01 -4.6488469500223D-01  1.3220256270033D+00
    89  8.8000000000000D-01 -4.6219740669414D-01  1.2469387158554D+00
    90  8.9000000000000D-01 -4.5646916973277D-01  1.1673103882534D+00
    91  9.0000000000000D-01 -4.4787444116296D-01  1.0836758043292D+00
    92  9.1000000000000D-01 -4.3660845021225D-01  9.9662008905286D-01
    93  9.2000000000000D-01 -4.2288513223816D-01  9.0677224271831D-01
    94  9.3000000000000D-01 -4.0693482255653D-01  8.1479831160714D-01
    95  9.4000000000000D-01 -3.8900173882793D-01  7.2139390779440D-01
    96  9.5000000000000D-01 -3.6934128419151D-01  6.2727617856368D-01
    97  9.6000000000000D-01 -3.4821720639184D-01  5.3317533594248D-01
    98  9.7000000000000D-01 -3.2589865070041D-01  4.3982586531422D-01
    99  9.8000000000000D-01 -3.0265714639025D-01  3.4795753857192D-01
   100  9.9000000000000D-01 -2.7876356796101D-01  2.5828636212886D-01
   101  1.0000000000000D+00 -2.5448511304951D-01  1.7150559267844D-01
   102  1.0100000000000D+00 -2.3008233909297D-01  8.8276954215809D-02
   103  1.0200000000000D+00 -2.0580630028662D-01  9.2221883217125D-03
   104  1.0300000000000D+00 -1.8189582521424D-01 -6.5084933873187D-02
   105  1.0400000000000D+00 -1.5857497358962D-01 -1.3412601572779D-01
   106  1.0500000000000D+00 -1.3605070840230D-01 -1.9744473960913D-01
   107  1.0600000000000D+00 -1.1451081638965D-01 -2.5465276710885D-01
   108  1.0700000000000D+00 -9.4122106424060D-02 -3.0543474084292D-01
   109  1.0800000000000D+00 -7.5028911327371D-02 -3.4955230678892D-01
   110  1.0900000000000D+00 -5.7351913775933D-02 -3.8684709170069D-01
   111  1.1000000000000D+00 -4.1187313030037D-02 -4.1724258278175D-01
   112  1.1100000000000D+00 -2.6606342926712D-02 -4.4074487708269D-01
   113  1.1200000000000D+00 -1.3655147061914D-02 -4.5744228264918D-01
   114  1.1300000000000D+00 -2.3550109512244D-03 -4.6750377326028D-01
   115  1.1400000000000D+00  7.2970536824472D-03 -4.7117631358864D-01
   116  1.1500000000000D+00  1.5327383666746D-02 -4.6878109204794D-01
   117  1.1600000000000D+00  2.1784414397706D-02 -4.6070871490382D-01
   118  1.1700000000000D+00  2.6737126827973D-02 -4.4741343300952D-01
   119  1.1800000000000D+00  3.0273216740506D-02 -4.2940648419322D-01
   120  1.1900000000000D+00  3.2497017800722D-02 -4.0724865432669D-01
   121  1.2000000000000D+00  3.3527212977089D-02 -3.8154217013392D-01
   122  1.2100000000000D+00  3.3494372406796D-02 -3.5292204808525D-01
   123  1.2200000000000D+00  3.2538358670368D-02 -3.2204703307249D-01
   124  1.2300000000000D+00  3.0805643577301D-02 -2.8959027071388D-01
   125  1.2400000000000D+00  2.8446581144458D-02 -2.5622985899064D-01
   126  1.2500000000000D+00  2.5612682954771D-02 -2.2263942979812D-01
   127  1.2600000000000D+00  2.2453942811166D-02 -1.8947891329794D-01
   128  1.2700000000000D+00  1.9116258504582D-02 -1.5738564196211D-01
   129  1.2800000000000D+00  1.5738978438264D-02 -1.2696587774439D-01
   130  1.2900000000000D+00  1.2452682572096D-02 -9.8787143440561D-02
   131  1.3000000000000D+00  9.3769650839272D-03 -7.3370505212585D-02
   132  1.3100000000000D+00  6.6192146421794D-03 -5.1186388280308D-02
   133  1.3200000000000D+00  4.2739052890754D-03 -3.2658579443572D-02
   134  1.3300000000000D+00  2.4026757998239D-03 -1.8036326446441D-02
   135  1.3400000000000D+00  1.0801056998419D-03 -7.7227963561867D-03
   136  1.3500000000000D+00  3.7597676550764D-04 -2.1384300417733D-03
   137  1.3600000000000D+00  1.0646511793430D-04 -1.4697741628300D-04
   138  1.3700000000000D+00  1.4181205845124D-05  8.7452915686246D-05
   139  1.3800000000000D+00 -3.3019994293493D-06 -5.1051201479177D-05
   140  1.3900000000000D+00 -2.9648876056052D-07 -1.0136850381726D-05
   141  1.4000000000000D+00  1.1400976276644D-06  8.5508260750940D-06
   142  1.4100000000000D+00 -1.8107793095266D-07  4.2865037305069D-07
   143  1.4200000000000D+00 -2.8162144075931D-07  6.6665846580777D-07
   144  1.4300000000000D+00  0.0000000000000D+00  0.0000000000000D+00
   145  1.4400000000000D+00  0.0000000000000D+00  0.0000000000000D+00
   146  1.4500000000000D+00  0.0000000000000D+00  0.0000000000000D+00
   147  1.4600000000000D+00  0.0000000000000D+00  0.0000000000000D+00
   148  1.4700000000000D+00  0.0000000000000D+00  0.0000000000000D+00
   149  1.4800000000000D+00  0.0000000000000D+00  0.0000000000000D+00
   150  1.4900000000000D+00  0.0000000000000D+00  0.0000000000000D+00
   151  1.5000000000000D+00  0.0000000000000D+00  0.0000000000000D+00
   152  1.5100000000000D+00  0.0000000000000D+00  0.0000000000000D+00
   153  1.5200000000000D+00  0.0000000000000D+00  0.0000000000000D+00
   154  1.5300000000000D+00  0.0000000000000D+00  0.0000000000000D+00
   155  1.5400000000000D+00  0.0000000000000D+00  0.0000000000000D+00
   156  1.5500000000000D+00  0.0000000000000D+00  0.0000000000000D+00
   157  1.5600000000000D+00  0.0000000000000D+00  0.0000000000000D+00
   158  1.5700000000000D+00  0.0000000000000D+00  0.0000000000000D+00
   159  1.5800000000000D+00  0.0000000000000D+00  0.0000000000000D+00
   160  1.5900000000000D+00  0.0000000000000D+00  0.0000000000000D+00
   161  1.6000000000000D+00  0.0000000000000D+00  0.0000000000000D+00
   162  1.6100000000000D+00  0.0000000000000D+00  0.0000000000000D+00
   163  1.6200000000000D+00  0.0000000000000D+00  0.0000000000000D+00
   164  1.6300000000000D+00  0.0000000000000D+00  0.0000000000000D+00
   165  1.6400000000000D+00  0.0000000000000D+00  0.0000000000000D+00
   166  1.6500000000000D+00  0.0000000000000D+00  0.0000000000000D+00
   167  1.6600000000000D+00  0.0000000000000D+00  0.0000000000000D+00
   168  1.6700000000000D+00  0.0000000000000D+00  0.0000000000000D+00
   169  1.6800000000000D+00  0.0000000000000D+00  0.0000000000000D+00
   170  1.6900000000000D+00  0.0000000000000D+00  0.0000000000000D+00
   171  1.7000000000000D+00  0.0000000000000D+00  0.0000000000000D+00
   172  1.7100000000000D+00  0.0000000000000D+00  0.0000000000000D+00
   173  1.7200000000000D+00  0.0000000000000D+00  0.0000000000000D+00
   174  1.7300000000000D+00  0.0000000000000D+00  0.0000000000000D+00
   175  1.7400000000000D+00  0.0000000000000D+00  0.0000000000000D+00
   176  1.7500000000000D+00  0.0000000000000D+00  0.0000000000000D+00
   177  1.7600000000000D+00  0.0000000000000D+00  0.0000000000000D+00
   178  1.7700000000000D+00  0.0000000000000D+00  0.0000000000000D+00
   179  1.7800000000000D+00  0.0000000000000D+00  0.0000000000000D+00
   180  1.7900000000000D+00  0.0000000000000D+00  0.0000000000000D+00
   181  1.8000000000000D+00  0.0000000000000D+00  0.0000000000000D+00
   182  1.8100000000000D+00  0.0000000000000D+00  0.0000000000000D+00
   183  1.8200000000000D+00  0.0000000000000D+00  0.0000000000000D+00
   184  1.8300000000000D+00  0.0000000000000D+00  0.0000000000000D+00
   185  1.8400000000000D+00  0.0000000000000D+00  0.0000000000000D+00
   186  1.8500000000000D+00  0.0000000000000D+00  0.0000000000000D+00
   187  1.8600000000000D+00  0.0000000000000D+00  0.0000000000000D+00
   188  1.8700000000000D+00  0.0000000000000D+00  0.0000000000000D+00
   189  1.8800000000000D+00  0.0000000000000D+00  0.0000000000000D+00
   190  1.8900000000000D+00  0.0000000000000D+00  0.0000000000000D+00
   191  1.9000000000000D+00  0.0000000000000D+00  0.0000000000000D+00
   192  1.9100000000000D+00  0.0000000000000D+00  0.0000000000000D+00
   193  1.9200000000000D+00  0.0000000000000D+00  0.0000000000000D+00
   194  1.9300000000000D+00  0.0000000000000D+00  0.0000000000000D+00
   195  1.9400000000000D+00  0.0000000000000D+00  0.0000000000000D+00
   196  1.9500000000000D+00  0.0000000000000D+00  0.0000000000000D+00
   197  1.9600000000000D+00  0.0000000000000D+00  0.0000000000000D+00
   198  1.9700000000000D+00  0.0000000000000D+00  0.0000000000000D+00
   199  1.9800000000000D+00  0.0000000000000D+00  0.0000000000000D+00
   200  1.9900000000000D+00  0.0000000000000D+00  0.0000000000000D+00
   201  2.0000000000000D+00  0.0000000000000D+00  0.0000000000000D+00
   202  2.0100000000000D+00  0.0000000000000D+00  0.0000000000000D+00
   203  2.0200000000000D+00  0.0000000000000D+00  0.0000000000000D+00
   204  2.0300000000000D+00  0.0000000000000D+00  0.0000000000000D+00
   205  2.0400000000000D+00  0.0000000000000D+00  0.0000000000000D+00
   206  2.0500000000000D+00  0.0000000000000D+00  0.0000000000000D+00
   207  2.0600000000000D+00  0.0000000000000D+00  0.0000000000000D+00
   208  2.0700000000000D+00  0.0000000000000D+00  0.0000000000000D+00
   209  2.0800000000000D+00  0.0000000000000D+00  0.0000000000000D+00
   210  2.0900000000000D+00  0.0000000000000D+00  0.0000000000000D+00
   211  2.1000000000000D+00  0.0000000000000D+00  0.0000000000000D+00
   212  2.1100000000000D+00  0.0000000000000D+00  0.0000000000000D+00
   213  2.1200000000000D+00  0.0000000000000D+00  0.0000000000000D+00
   214  2.1300000000000D+00  0.0000000000000D+00  0.0000000000000D+00
   215  2.1400000000000D+00  0.0000000000000D+00  0.0000000000000D+00
   216  2.1500000000000D+00  0.0000000000000D+00  0.0000000000000D+00
   217  2.1600000000000D+00  0.0000000000000D+00  0.0000000000000D+00
   218  2.1700000000000D+00  0.0000000000000D+00  0.0000000000000D+00
   219  2.1800000000000D+00  0.0000000000000D+00  0.0000000000000D+00
   220  2.1900000000000D+00  0.0000000000000D+00  0.0000000000000D+00
   221  2.2000000000000D+00  0.0000000000000D+00  0.0000000000000D+00
   222  2.2100000000000D+00  0.0000000000000D+00  0.0000000000000D+00
   223  2.2200000000000D+00  0.0000000000000D+00  0.0000000000000D+00
   224  2.2300000000000D+00  0.0000000000000D+00  0.0000000000000D+00
   225  2.2400000000000D+00  0.0000000000000D+00  0.0000000000000D+00
   226  2.2500000000000D+00  0.0000000000000D+00  0.0000000000000D+00
   227  2.2600000000000D+00  0.0000000000000D+00  0.0000000000000D+00
   228  2.2700000000000D+00  0.0000000000000D+00  0.0000000000000D+00
   229  2.2800000000000D+00  0.0000000000000D+00  0.0000000000000D+00
   230  2.2900000000000D+00  0.0000000000000D+00  0.0000000000000D+00
   231  2.3000000000000D+00  0.0000000000000D+00  0.0000000000000D+00
   232  2.3100000000000D+00  0.0000000000000D+00  0.0000000000000D+00
   233  2.3200000000000D+00  0.0000000000000D+00  0.0000000000000D+00
   234  2.3300000000000D+00  0.0000000000000D+00  0.0000000000000D+00
   235  2.3400000000000D+00  0.0000000000000D+00  0.0000000000000D+00
   236  2.3500000000000D+00  0.0000000000000D+00  0.0000000000000D+00
   237  2.3600000000000D+00  0.0000000000000D+00  0.0000000000000D+00
   238  2.3700000000000D+00  0.0000000000000D+00  0.0000000000000D+00
   239  2.3800000000000D+00  0.0000000000000D+00  0.0000000000000D+00
   240  2.3900000000000D+00  0.0000000000000D+00  0.0000000000000D+00
   241  2.4000000000000D+00  0.0000000000000D+00  0.0000000000000D+00
   242  2.4100000000000D+00  0.0000000000000D+00  0.0000000000000D+00
   243  2.4200000000000D+00  0.0000000000000D+00  0.0000000000000D+00
   244  2.4300000000000D+00  0.0000000000000D+00  0.0000000000000D+00
   245  2.4400000000000D+00  0.0000000000000D+00  0.0000000000000D+00
   246  2.4500000000000D+00  0.0000000000000D+00  0.0000000000000D+00
   247  2.4600000000000D+00  0.0000000000000D+00  0.0000000000000D+00
   248  2.4700000000000D+00  0.0000000000000D+00  0.0000000000000D+00
   249  2.4800000000000D+00  0.0000000000000D+00  0.0000000000000D+00
   250  2.4900000000000D+00  0.0000000000000D+00  0.0000000000000D+00
   251  2.5000000000000D+00  0.0000000000000D+00  0.0000000000000D+00
   252  2.5100000000000D+00  0.0000000000000D+00  0.0000000000000D+00
   253  2.5200000000000D+00  0.0000000000000D+00  0.0000000000000D+00
   254  2.5300000000000D+00  0.0000000000000D+00  0.0000000000000D+00
   255  2.5400000000000D+00  0.0000000000000D+00  0.0000000000000D+00
   256  2.5500000000000D+00  0.0000000000000D+00  0.0000000000000D+00
   257  2.5600000000000D+00  0.0000000000000D+00  0.0000000000000D+00
   258  2.5700000000000D+00  0.0000000000000D+00  0.0000000000000D+00
   259  2.5800000000000D+00  0.0000000000000D+00  0.0000000000000D+00
   260  2.5900000000000D+00  0.0000000000000D+00  0.0000000000000D+00
   261  2.6000000000000D+00  0.0000000000000D+00  0.0000000000000D+00
   262  2.6100000000000D+00  0.0000000000000D+00  0.0000000000000D+00
   263  2.6200000000000D+00  0.0000000000000D+00  0.0000000000000D+00
   264  2.6300000000000D+00  0.0000000000000D+00  0.0000000000000D+00
   265  2.6400000000000D+00  0.0000000000000D+00  0.0000000000000D+00
   266  2.6500000000000D+00  0.0000000000000D+00  0.0000000000000D+00
   267  2.6600000000000D+00  0.0000000000000D+00  0.0000000000000D+00
   268  2.6700000000000D+00  0.0000000000000D+00  0.0000000000000D+00
   269  2.6800000000000D+00  0.0000000000000D+00  0.0000000000000D+00
   270  2.6900000000000D+00  0.0000000000000D+00  0.0000000000000D+00
   271  2.7000000000000D+00  0.0000000000000D+00  0.0000000000000D+00
   272  2.7100000000000D+00  0.0000000000000D+00  0.0000000000000D+00
   273  2.7200000000000D+00  0.0000000000000D+00  0.0000000000000D+00
   274  2.7300000000000D+00  0.0000000000000D+00  0.0000000000000D+00
   275  2.7400000000000D+00  0.0000000000000D+00  0.0000000000000D+00
   276  2.7500000000000D+00  0.0000000000000D+00  0.0000000000000D+00
   277  2.7600000000000D+00  0.0000000000000D+00  0.0000000000000D+00
   278  2.7700000000000D+00  0.0000000000000D+00  0.0000000000000D+00
   279  2.7800000000000D+00  0.0000000000000D+00  0.0000000000000D+00
   280  2.7900000000000D+00  0.0000000000000D+00  0.0000000000000D+00
   281  2.8000000000000D+00  0.0000000000000D+00  0.0000000000000D+00
   282  2.8100000000000D+00  0.0000000000000D+00  0.0000000000000D+00
   283  2.8200000000000D+00  0.0000000000000D+00  0.0000000000000D+00
   284  2.8300000000000D+00  0.0000000000000D+00  0.0000000000000D+00
   285  2.8400000000000D+00  0.0000000000000D+00  0.0000000000000D+00
   286  2.8500000000000D+00  0.0000000000000D+00  0.0000000000000D+00
   287  2.8600000000000D+00  0.0000000000000D+00  0.0000000000000D+00
   288  2.8700000000000D+00  0.0000000000000D+00  0.0000000000000D+00
   289  2.8800000000000D+00  0.0000000000000D+00  0.0000000000000D+00
   290  2.8900000000000D+00  0.0000000000000D+00  0.0000000000000D+00
   291  2.9000000000000D+00  0.0000000000000D+00  0.0000000000000D+00
   292  2.9100000000000D+00  0.0000000000000D+00  0.0000000000000D+00
   293  2.9200000000000D+00  0.0000000000000D+00  0.0000000000000D+00
   294  2.9300000000000D+00  0.0000000000000D+00  0.0000000000000D+00
   295  2.9400000000000D+00  0.0000000000000D+00  0.0000000000000D+00
   296  2.9500000000000D+00  0.0000000000000D+00  0.0000000000000D+00
   297  2.9600000000000D+00  0.0000000000000D+00  0.0000000000000D+00
   298  2.9700000000000D+00  0.0000000000000D+00  0.0000000000000D+00
   299  2.9800000000000D+00  0.0000000000000D+00  0.0000000000000D+00
   300  2.9900000000000D+00  0.0000000000000D+00  0.0000000000000D+00
   301  3.0000000000000D+00  0.0000000000000D+00  0.0000000000000D+00
   302  3.0100000000000D+00  0.0000000000000D+00  0.0000000000000D+00
   303  3.0200000000000D+00  0.0000000000000D+00  0.0000000000000D+00
   304  3.0300000000000D+00  0.0000000000000D+00  0.0000000000000D+00
   305  3.0400000000000D+00  0.0000000000000D+00  0.0000000000000D+00
   306  3.0500000000000D+00  0.0000000000000D+00  0.0000000000000D+00
   307  3.0600000000000D+00  0.0000000000000D+00  0.0000000000000D+00
   308  3.0700000000000D+00  0.0000000000000D+00  0.0000000000000D+00
   309  3.0800000000000D+00  0.0000000000000D+00  0.0000000000000D+00
   310  3.0900000000000D+00  0.0000000000000D+00  0.0000000000000D+00
   311  3.1000000000000D+00  0.0000000000000D+00  0.0000000000000D+00
   312  3.1100000000000D+00  0.0000000000000D+00  0.0000000000000D+00
   313  3.1200000000000D+00  0.0000000000000D+00  0.0000000000000D+00
   314  3.1300000000000D+00  0.0000000000000D+00  0.0000000000000D+00
   315  3.1400000000000D+00  0.0000000000000D+00  0.0000000000000D+00
   316  3.1500000000000D+00  0.0000000000000D+00  0.0000000000000D+00
   317  3.1600000000000D+00  0.0000000000000D+00  0.0000000000000D+00
   318  3.1700000000000D+00  0.0000000000000D+00  0.0000000000000D+00
   319  3.1800000000000D+00  0.0000000000000D+00  0.0000000000000D+00
   320  3.1900000000000D+00  0.0000000000000D+00  0.0000000000000D+00
   321  3.2000000000000D+00  0.0000000000000D+00  0.0000000000000D+00
   322  3.2100000000000D+00  0.0000000000000D+00  0.0000000000000D+00
   323  3.2200000000000D+00  0.0000000000000D+00  0.0000000000000D+00
   324  3.2300000000000D+00  0.0000000000000D+00  0.0000000000000D+00
   325  3.2400000000000D+00  0.0000000000000D+00  0.0000000000000D+00
   326  3.2500000000000D+00  0.0000000000000D+00  0.0000000000000D+00
   327  3.2600000000000D+00  0.0000000000000D+00  0.0000000000000D+00
   328  3.2700000000000D+00  0.0000000000000D+00  0.0000000000000D+00
   329  3.2800000000000D+00  0.0000000000000D+00  0.0000000000000D+00
   330  3.2900000000000D+00  0.0000000000000D+00  0.0000000000000D+00
   331  3.3000000000000D+00  0.0000000000000D+00  0.0000000000000D+00
   332  3.3100000000000D+00  0.0000000000000D+00  0.0000000000000D+00
   333  3.3200000000000D+00  0.0000000000000D+00  0.0000000000000D+00
   334  3.3300000000000D+00  0.0000000000000D+00  0.0000000000000D+00
   335  3.3400000000000D+00  0.0000000000000D+00  0.0000000000000D+00
   336  3.3500000000000D+00  0.0000000000000D+00  0.0000000000000D+00
   337  3.3600000000000D+00  0.0000000000000D+00  0.0000000000000D+00
   338  3.3700000000000D+00  0.0000000000000D+00  0.0000000000000D+00
   339  3.3800000000000D+00  0.0000000000000D+00  0.0000000000000D+00
   340  3.3900000000000D+00  0.0000000000000D+00  0.0000000000000D+00
   341  3.4000000000000D+00  0.0000000000000D+00  0.0000000000000D+00
   342  3.4100000000000D+00  0.0000000000000D+00  0.0000000000000D+00
   343  3.4200000000000D+00  0.0000000000000D+00  0.0000000000000D+00
   344  3.4300000000000D+00  0.0000000000000D+00  0.0000000000000D+00
   345  3.4400000000000D+00  0.0000000000000D+00  0.0000000000000D+00
   346  3.4500000000000D+00  0.0000000000000D+00  0.0000000000000D+00
   347  3.4600000000000D+00  0.0000000000000D+00  0.0000000000000D+00
   348  3.4700000000000D+00  0.0000000000000D+00  0.0000000000000D+00
   349  3.4800000000000D+00  0.0000000000000D+00  0.0000000000000D+00
   350  3.4900000000000D+00  0.0000000000000D+00  0.0000000000000D+00
   351  3.5000000000000D+00  0.0000000000000D+00  0.0000000000000D+00
   352  3.5100000000000D+00  0.0000000000000D+00  0.0000000000000D+00
   353  3.5200000000000D+00  0.0000000000000D+00  0.0000000000000D+00
   354  3.5300000000000D+00  0.0000000000000D+00  0.0000000000000D+00
   355  3.5400000000000D+00  0.0000000000000D+00  0.0000000000000D+00
   356  3.5500000000000D+00  0.0000000000000D+00  0.0000000000000D+00
   357  3.5600000000000D+00  0.0000000000000D+00  0.0000000000000D+00
   358  3.5700000000000D+00  0.0000000000000D+00  0.0000000000000D+00
   359  3.5800000000000D+00  0.0000000000000D+00  0.0000000000000D+00
   360  3.5900000000000D+00  0.0000000000000D+00  0.0000000000000D+00
   361  3.6000000000000D+00  0.0000000000000D+00  0.0000000000000D+00
   362  3.6100000000000D+00  0.0000000000000D+00  0.0000000000000D+00
   363  3.6200000000000D+00  0.0000000000000D+00  0.0000000000000D+00
   364  3.6300000000000D+00  0.0000000000000D+00  0.0000000000000D+00
   365  3.6400000000000D+00  0.0000000000000D+00  0.0000000000000D+00
   366  3.6500000000000D+00  0.0000000000000D+00  0.0000000000000D+00
   367  3.6600000000000D+00  0.0000000000000D+00  0.0000000000000D+00
   368  3.6700000000000D+00  0.0000000000000D+00  0.0000000000000D+00
   369  3.6800000000000D+00  0.0000000000000D+00  0.0000000000000D+00
   370  3.6900000000000D+00  0.0000000000000D+00  0.0000000000000D+00
   371  3.7000000000000D+00  0.0000000000000D+00  0.0000000000000D+00
   372  3.7100000000000D+00  0.0000000000000D+00  0.0000000000000D+00
   373  3.7200000000000D+00  0.0000000000000D+00  0.0000000000000D+00
   374  3.7300000000000D+00  0.0000000000000D+00  0.0000000000000D+00
   375  3.7400000000000D+00  0.0000000000000D+00  0.0000000000000D+00
   376  3.7500000000000D+00  0.0000000000000D+00  0.0000000000000D+00
   377  3.7600000000000D+00  0.0000000000000D+00  0.0000000000000D+00
   378  3.7700000000000D+00  0.0000000000000D+00  0.0000000000000D+00
   379  3.7800000000000D+00  0.0000000000000D+00  0.0000000000000D+00
   380  3.7900000000000D+00  0.0000000000000D+00  0.0000000000000D+00
   381  3.8000000000000D+00  0.0000000000000D+00  0.0000000000000D+00
   382  3.8100000000000D+00  0.0000000000000D+00  0.0000000000000D+00
   383  3.8200000000000D+00  0.0000000000000D+00  0.0000000000000D+00
   384  3.8300000000000D+00  0.0000000000000D+00  0.0000000000000D+00
   385  3.8400000000000D+00  0.0000000000000D+00  0.0000000000000D+00
   386  3.8500000000000D+00  0.0000000000000D+00  0.0000000000000D+00
   387  3.8600000000000D+00  0.0000000000000D+00  0.0000000000000D+00
   388  3.8700000000000D+00  0.0000000000000D+00  0.0000000000000D+00
   389  3.8800000000000D+00  0.0000000000000D+00  0.0000000000000D+00
   390  3.8900000000000D+00  0.0000000000000D+00  0.0000000000000D+00
   391  3.9000000000000D+00  0.0000000000000D+00  0.0000000000000D+00
   392  3.9100000000000D+00  0.0000000000000D+00  0.0000000000000D+00
   393  3.9200000000000D+00  0.0000000000000D+00  0.0000000000000D+00
   394  3.9300000000000D+00  0.0000000000000D+00  0.0000000000000D+00
   395  3.9400000000000D+00  0.0000000000000D+00  0.0000000000000D+00
   396  3.9500000000000D+00  0.0000000000000D+00  0.0000000000000D+00
   397  3.9600000000000D+00  0.0000000000000D+00  0.0000000000000D+00
   398  3.9700000000000D+00  0.0000000000000D+00  0.0000000000000D+00
   399  3.9800000000000D+00  0.0000000000000D+00  0.0000000000000D+00
   400  3.9900000000000D+00  0.0000000000000D+00  0.0000000000000D+00
   401  4.0000000000000D+00  0.0000000000000D+00  0.0000000000000D+00
   402  4.0100000000000D+00  0.0000000000000D+00  0.0000000000000D+00
   403  4.0200000000000D+00  0.0000000000000D+00  0.0000000000000D+00
   404  4.0300000000000D+00  0.0000000000000D+00  0.0000000000000D+00
   405  4.0400000000000D+00  0.0000000000000D+00  0.0000000000000D+00
   406  4.0500000000000D+00  0.0000000000000D+00  0.0000000000000D+00
   407  4.0600000000000D+00  0.0000000000000D+00  0.0000000000000D+00
   408  4.0700000000000D+00  0.0000000000000D+00  0.0000000000000D+00
   409  4.0800000000000D+00  0.0000000000000D+00  0.0000000000000D+00
   410  4.0900000000000D+00  0.0000000000000D+00  0.0000000000000D+00
   411  4.1000000000000D+00  0.0000000000000D+00  0.0000000000000D+00
   412  4.1100000000000D+00  0.0000000000000D+00  0.0000000000000D+00
   413  4.1200000000000D+00  0.0000000000000D+00  0.0000000000000D+00
   414  4.1300000000000D+00  0.0000000000000D+00  0.0000000000000D+00
   415  4.1400000000000D+00  0.0000000000000D+00  0.0000000000000D+00
   416  4.1500000000000D+00  0.0000000000000D+00  0.0000000000000D+00
   417  4.1600000000000D+00  0.0000000000000D+00  0.0000000000000D+00
   418  4.1700000000000D+00  0.0000000000000D+00  0.0000000000000D+00
   419  4.1800000000000D+00  0.0000000000000D+00  0.0000000000000D+00
   420  4.1900000000000D+00  0.0000000000000D+00  0.0000000000000D+00
   421  4.2000000000000D+00  0.0000000000000D+00  0.0000000000000D+00
   422  4.2100000000000D+00  0.0000000000000D+00  0.0000000000000D+00